# Probe 0 (0.05 0.05 0.005)
#       Probe             0
#        Time
        0.001     0.0399999
        0.002     0.0399986
        0.003     0.0399928
        0.004     0.0399766
        0.005     0.0399416
        0.006     0.0398767
        0.007     0.0397684
        0.008     0.0396009
        0.009     0.0393565
         0.01     0.0390159
        0.011     0.0385587
        0.012     0.0379646
        0.013      0.037214
        0.014     0.0362895
        0.015     0.0351774
        0.016     0.0338691
        0.017     0.0323626
        0.018     0.0306638
        0.019     0.0287878
         0.02     0.0267585
        0.021     0.0246093
        0.022     0.0223807
        0.023     0.0201189
        0.024      0.017873
        0.025     0.0156911
        0.026     0.0136175
        0.027     0.0116891
        0.028    0.00993376
        0.029    0.00836853
         0.03    0.00699989
        0.031    0.00582462
        0.032    0.00483175
        0.033    0.00400477
        0.034      0.003324
        0.035    0.00276869
        0.036    0.00231861
        0.037    0.00195521
        0.038    0.00166217
        0.039    0.00142566
         0.04    0.00123423
        0.041    0.00107861
        0.042   0.000951411
        0.043   0.000846764
        0.044   0.000760072
        0.045   0.000687729
        0.046    0.00062691
        0.047     0.0005754
        0.048   0.000531456
        0.049   0.000493702
         0.05   0.000461045
