# Probe 0 (0.05 0.05 0.005)
#       Probe             0
#        Time
        0.001   7.91796e-08
        0.002   1.36609e-06
        0.003   7.20433e-06
        0.004   2.33475e-05
        0.005    5.8367e-05
        0.006   0.000123296
        0.007   0.000231616
        0.008   0.000399092
        0.009   0.000643481
         0.01   0.000984114
        0.011    0.00144128
        0.012     0.0020354
        0.013    0.00278602
        0.014    0.00371048
        0.015    0.00482255
        0.016    0.00613085
        0.017    0.00763738
        0.018    0.00933614
        0.019     0.0112122
         0.02     0.0132414
        0.021     0.0153907
        0.022     0.0176193
        0.023      0.019881
        0.024      0.022127
        0.025     0.0243089
        0.026     0.0263825
        0.027     0.0283109
        0.028     0.0300662
        0.029     0.0316314
         0.03     0.0330001
        0.031     0.0341754
        0.032     0.0351682
        0.033     0.0359952
        0.034      0.036676
        0.035     0.0372313
        0.036     0.0376814
        0.037     0.0380448
        0.038     0.0383378
        0.039     0.0385743
         0.04     0.0387658
        0.041     0.0389214
        0.042     0.0390486
        0.043     0.0391532
        0.044     0.0392399
        0.045     0.0393123
        0.046     0.0393731
        0.047     0.0394246
        0.048     0.0394685
        0.049     0.0395063
         0.05     0.0395389
