# Probe 0 (0.05 0.05 0.005)
#       Probe             0
#        Time
        0.005   7.30176e-07
         0.01   1.28934e-05
        0.015   6.80466e-05
         0.02   0.000220378
        0.025   0.000549611
         0.03    0.00115534
        0.035    0.00215202
         0.04    0.00365872
        0.045    0.00578298
         0.05    0.00859848
        0.055     0.0121174
         0.06      0.016261
        0.065     0.0208361
         0.07     0.0255275
        0.075     0.0299247
         0.08     0.0336044
        0.085      0.036275
         0.09     0.0379231
        0.095     0.0388049
          0.1     0.0392457
        0.105      0.039471
         0.11     0.0395951
        0.115     0.0396696
         0.12     0.0397179
