# Probe 0 (0.05 0.05 0.005)
#       Probe             0
#        Time
        0.005     0.0399993
         0.01     0.0399871
        0.015     0.0399319
         0.02     0.0397796
        0.025     0.0394504
         0.03     0.0388446
        0.035      0.037848
         0.04     0.0363413
        0.045      0.034217
         0.05     0.0314015
        0.055     0.0278826
         0.06      0.023739
        0.065     0.0191639
         0.07     0.0144725
        0.075     0.0100753
         0.08    0.00639556
        0.085    0.00372494
         0.09    0.00207692
        0.095    0.00119513
          0.1   0.000754271
        0.105   0.000528943
         0.11   0.000404839
        0.115   0.000330369
         0.12   0.000282119
