# Probe 0 (0.05 0.05 0.005)
#       Probe             0
#        Time
         0.01   3.50744e-10
         0.02   5.96713e-09
         0.03   3.14037e-08
         0.04   1.01721e-07
         0.05   2.54329e-07
         0.06   5.37626e-07
         0.07   1.01135e-06
         0.08   1.74656e-06
         0.09   2.82565e-06
          0.1   4.34232e-06
         0.11   6.40157e-06
         0.12   9.11965e-06
         0.13    1.2624e-05
         0.14   1.70534e-05
         0.15   2.25575e-05
         0.16   2.92972e-05
         0.17   3.74442e-05
         0.18   4.71812e-05
         0.19   5.87012e-05
          0.2   7.22082e-05
         0.21   8.79162e-05
         0.22   0.000106049
         0.23   0.000126842
         0.24   0.000150536
         0.25   0.000177386
         0.26   0.000207652
         0.27   0.000241605
         0.28    0.00027952
         0.29   0.000321684
          0.3   0.000368387
         0.31   0.000419926
         0.32   0.000476603
         0.33   0.000538725
         0.34   0.000606602
         0.35   0.000680546
         0.36   0.000760872
         0.37   0.000847893
         0.38   0.000941923
         0.39    0.00104327
          0.4    0.00115225
         0.41    0.00126916
         0.42     0.0013943
         0.43    0.00152795
         0.44    0.00167041
         0.45    0.00182193
         0.46    0.00198277
         0.47    0.00215318
         0.48    0.00233338
         0.49    0.00252358
          0.5    0.00272398
         0.51    0.00293473
         0.52      0.003156
         0.53    0.00338789
         0.54    0.00363051
         0.55    0.00388393
         0.56    0.00414819
         0.57     0.0044233
         0.58    0.00470924
         0.59    0.00500596
          0.6    0.00531338
         0.61    0.00563139
         0.62    0.00595983
         0.63    0.00629851
         0.64    0.00664724
         0.65    0.00700574
         0.66    0.00737374
         0.67    0.00775092
         0.68    0.00813693
         0.69     0.0085314
          0.7     0.0089339
         0.71    0.00934401
         0.72    0.00976126
         0.73     0.0101852
         0.74     0.0106152
         0.75     0.0110509
         0.76     0.0114916
         0.77     0.0119368
         0.78     0.0123859
         0.79     0.0128384
          0.8     0.0132937
         0.81     0.0137511
         0.82       0.01421
         0.83     0.0146699
         0.84     0.0151302
         0.85     0.0155903
         0.86     0.0160496
         0.87     0.0165075
         0.88     0.0169636
         0.89     0.0174172
          0.9     0.0178679
         0.91     0.0183152
         0.92     0.0187586
         0.93     0.0191977
         0.94     0.0196321
         0.95     0.0200613
         0.96      0.020485
         0.97     0.0209028
         0.98     0.0213145
         0.99     0.0217198
            1     0.0221184
         1.01       0.02251
         1.02     0.0228946
         1.03     0.0232718
         1.04     0.0236416
         1.05     0.0240039
         1.06     0.0243585
         1.07     0.0247054
         1.08     0.0250444
         1.09     0.0253757
          1.1     0.0256992
         1.11     0.0260148
         1.12     0.0263226
         1.13     0.0266227
         1.14     0.0269151
         1.15     0.0271999
         1.16     0.0274771
         1.17     0.0277469
         1.18     0.0280094
         1.19     0.0282646
          1.2     0.0285127
         1.21     0.0287539
         1.22     0.0289882
         1.23     0.0292158
         1.24     0.0294369
         1.25     0.0296515
         1.26     0.0298599
         1.27     0.0300622
         1.28     0.0302585
         1.29      0.030449
          1.3     0.0306338
         1.31     0.0308132
         1.32     0.0309873
         1.33     0.0311561
         1.34     0.0313199
         1.35     0.0314788
         1.36      0.031633
         1.37     0.0317825
         1.38     0.0319276
         1.39     0.0320684
          1.4      0.032205
         1.41     0.0323376
         1.42     0.0324662
         1.43      0.032591
         1.44     0.0327121
         1.45     0.0328297
         1.46     0.0329439
         1.47     0.0330547
         1.48     0.0331623
         1.49     0.0332668
          1.5     0.0333683
         1.51     0.0334669
         1.52     0.0335626
         1.53     0.0336557
         1.54     0.0337461
         1.55      0.033834
         1.56     0.0339195
         1.57     0.0340026
         1.58     0.0340833
         1.59     0.0341619
          1.6     0.0342384
         1.61     0.0343127
         1.62     0.0343851
         1.63     0.0344555
         1.64     0.0345241
         1.65     0.0345908
         1.66     0.0346559
         1.67     0.0347192
         1.68     0.0347809
         1.69      0.034841
          1.7     0.0348995
         1.71     0.0349566
         1.72     0.0350123
         1.73     0.0350666
         1.74     0.0351195
         1.75     0.0351711
         1.76     0.0352215
         1.77     0.0352707
         1.78     0.0353186
         1.79     0.0353655
          1.8     0.0354112
         1.81     0.0354559
         1.82     0.0354995
         1.83     0.0355421
         1.84     0.0355837
         1.85     0.0356244
         1.86     0.0356642
         1.87      0.035703
         1.88      0.035741
         1.89     0.0357782
          1.9     0.0358146
         1.91     0.0358501
         1.92     0.0358849
         1.93      0.035919
         1.94     0.0359523
         1.95     0.0359849
         1.96     0.0360169
         1.97     0.0360482
         1.98     0.0360788
         1.99     0.0361088
            2     0.0361382
         2.01     0.0361671
         2.02     0.0361953
         2.03      0.036223
         2.04     0.0362501
         2.05     0.0362767
         2.06     0.0363028
         2.07     0.0363284
         2.08     0.0363535
         2.09     0.0363781
          2.1     0.0364023
         2.11      0.036426
         2.12     0.0364493
         2.13     0.0364721
         2.14     0.0364946
         2.15     0.0365166
         2.16     0.0365382
         2.17     0.0365595
         2.18     0.0365803
         2.19     0.0366008
          2.2      0.036621
         2.21     0.0366408
         2.22     0.0366602
         2.23     0.0366794
         2.24     0.0366982
         2.25     0.0367166
         2.26     0.0367348
         2.27     0.0367527
         2.28     0.0367703
         2.29     0.0367876
          2.3     0.0368046
         2.31     0.0368213
         2.32     0.0368378
         2.33      0.036854
         2.34     0.0368699
         2.35     0.0368856
         2.36     0.0369011
         2.37     0.0369163
         2.38     0.0369313
         2.39     0.0369461
          2.4     0.0369606
         2.41     0.0369749
         2.42      0.036989
         2.43     0.0370029
         2.44     0.0370166
         2.45     0.0370301
         2.46     0.0370434
         2.47     0.0370565
         2.48     0.0370694
         2.49     0.0370821
          2.5     0.0370947
         2.51      0.037107
         2.52     0.0371192
         2.53     0.0371313
         2.54     0.0371431
         2.55     0.0371548
         2.56     0.0371664
         2.57     0.0371778
         2.58      0.037189
         2.59     0.0372001
          2.6      0.037211
         2.61     0.0372218
         2.62     0.0372324
         2.63      0.037243
         2.64     0.0372533
         2.65     0.0372636
         2.66     0.0372737
         2.67     0.0372837
         2.68     0.0372935
         2.69     0.0373033
          2.7     0.0373129
         2.71     0.0373224
         2.72     0.0373317
         2.73      0.037341
         2.74     0.0373501
         2.75     0.0373592
         2.76     0.0373681
         2.77     0.0373769
         2.78     0.0373856
         2.79     0.0373942
          2.8     0.0374027
         2.81     0.0374112
         2.82     0.0374195
         2.83     0.0374277
         2.84     0.0374358
         2.85     0.0374438
         2.86     0.0374518
         2.87     0.0374596
         2.88     0.0374674
         2.89     0.0374751
          2.9     0.0374826
         2.91     0.0374902
         2.92     0.0374976
         2.93     0.0375049
         2.94     0.0375122
         2.95     0.0375194
         2.96     0.0375265
         2.97     0.0375335
         2.98     0.0375404
         2.99     0.0375473
            3     0.0375541
         3.01     0.0375609
         3.02     0.0375675
         3.03     0.0375741
         3.04     0.0375807
         3.05     0.0375871
         3.06     0.0375935
         3.07     0.0375999
         3.08     0.0376061
         3.09     0.0376123
          3.1     0.0376185
         3.11     0.0376246
         3.12     0.0376306
         3.13     0.0376365
         3.14     0.0376424
         3.15     0.0376483
         3.16     0.0376541
         3.17     0.0376598
         3.18     0.0376655
         3.19     0.0376711
          3.2     0.0376767
         3.21     0.0376822
         3.22     0.0376877
         3.23     0.0376931
         3.24     0.0376985
         3.25     0.0377038
         3.26     0.0377091
         3.27     0.0377143
         3.28     0.0377194
         3.29     0.0377246
          3.3     0.0377296
         3.31     0.0377347
         3.32     0.0377397
         3.33     0.0377446
         3.34     0.0377495
         3.35     0.0377544
         3.36     0.0377592
         3.37      0.037764
         3.38     0.0377687
         3.39     0.0377734
          3.4      0.037778
         3.41     0.0377826
         3.42     0.0377872
         3.43     0.0377917
         3.44     0.0377962
         3.45     0.0378007
         3.46     0.0378051
         3.47     0.0378095
         3.48     0.0378138
         3.49     0.0378181
          3.5     0.0378224
         3.51     0.0378266
         3.52     0.0378308
         3.53      0.037835
         3.54     0.0378391
         3.55     0.0378432
         3.56     0.0378473
         3.57     0.0378513
         3.58     0.0378553
         3.59     0.0378593
          3.6     0.0378632
         3.61     0.0378671
         3.62      0.037871
         3.63     0.0378749
         3.64     0.0378787
         3.65     0.0378825
         3.66     0.0378862
         3.67       0.03789
         3.68     0.0378937
         3.69     0.0378973
          3.7      0.037901
         3.71     0.0379046
         3.72     0.0379082
         3.73     0.0379118
         3.74     0.0379153
         3.75     0.0379188
         3.76     0.0379223
         3.77     0.0379258
         3.78     0.0379292
         3.79     0.0379326
          3.8      0.037936
         3.81     0.0379394
         3.82     0.0379427
         3.83      0.037946
         3.84     0.0379493
         3.85     0.0379526
         3.86     0.0379558
         3.87      0.037959
         3.88     0.0379622
         3.89     0.0379654
          3.9     0.0379685
         3.91     0.0379717
         3.92     0.0379748
         3.93     0.0379779
         3.94     0.0379809
         3.95      0.037984
         3.96      0.037987
         3.97       0.03799
         3.98      0.037993
         3.99     0.0379959
            4     0.0379989
         4.01     0.0380018
         4.02     0.0380047
         4.03     0.0380076
         4.04     0.0380105
         4.05     0.0380133
         4.06     0.0380161
         4.07     0.0380189
         4.08     0.0380217
         4.09     0.0380245
          4.1     0.0380273
         4.11       0.03803
         4.12     0.0380327
         4.13     0.0380354
         4.14     0.0380381
         4.15     0.0380408
         4.16     0.0380434
         4.17     0.0380461
         4.18     0.0380487
         4.19     0.0380513
          4.2     0.0380539
         4.21     0.0380564
         4.22      0.038059
         4.23     0.0380615
         4.24      0.038064
         4.25     0.0380665
         4.26      0.038069
         4.27     0.0380715
         4.28      0.038074
         4.29     0.0380764
          4.3     0.0380788
         4.31     0.0380813
         4.32     0.0380837
         4.33      0.038086
         4.34     0.0380884
         4.35     0.0380908
         4.36     0.0380931
         4.37     0.0380955
         4.38     0.0380978
         4.39     0.0381001
          4.4     0.0381024
         4.41     0.0381046
         4.42     0.0381069
         4.43     0.0381092
         4.44     0.0381114
         4.45     0.0381136
         4.46     0.0381158
         4.47      0.038118
         4.48     0.0381202
         4.49     0.0381224
          4.5     0.0381245
         4.51     0.0381267
         4.52     0.0381288
         4.53      0.038131
         4.54     0.0381331
         4.55     0.0381352
         4.56     0.0381373
         4.57     0.0381393
         4.58     0.0381414
         4.59     0.0381435
          4.6     0.0381455
         4.61     0.0381476
         4.62     0.0381496
         4.63     0.0381516
         4.64     0.0381536
         4.65     0.0381556
         4.66     0.0381576
         4.67     0.0381595
         4.68     0.0381615
         4.69     0.0381634
          4.7     0.0381654
         4.71     0.0381673
         4.72     0.0381692
         4.73     0.0381711
         4.74      0.038173
         4.75     0.0381749
         4.76     0.0381768
         4.77     0.0381787
         4.78     0.0381805
         4.79     0.0381824
          4.8     0.0381842
         4.81      0.038186
         4.82     0.0381878
         4.83     0.0381897
         4.84     0.0381915
         4.85     0.0381933
         4.86      0.038195
         4.87     0.0381968
         4.88     0.0381986
         4.89     0.0382003
          4.9     0.0382021
         4.91     0.0382038
         4.92     0.0382055
         4.93     0.0382073
         4.94      0.038209
         4.95     0.0382107
         4.96     0.0382124
         4.97     0.0382141
         4.98     0.0382158
         4.99     0.0382174
            5     0.0382191
         5.01     0.0382207
         5.02     0.0382224
         5.03      0.038224
         5.04     0.0382257
         5.05     0.0382273
         5.06     0.0382289
         5.07     0.0382305
         5.08     0.0382321
         5.09     0.0382337
          5.1     0.0382353
         5.11     0.0382369
         5.12     0.0382384
         5.13       0.03824
         5.14     0.0382416
         5.15     0.0382431
         5.16     0.0382447
         5.17     0.0382462
         5.18     0.0382477
         5.19     0.0382492
          5.2     0.0382508
         5.21     0.0382523
         5.22     0.0382538
         5.23     0.0382553
         5.24     0.0382567
         5.25     0.0382582
         5.26     0.0382597
         5.27     0.0382612
         5.28     0.0382626
         5.29     0.0382641
          5.3     0.0382655
         5.31      0.038267
         5.32     0.0382684
         5.33     0.0382698
         5.34     0.0382712
         5.35     0.0382727
         5.36     0.0382741
         5.37     0.0382755
         5.38     0.0382769
         5.39     0.0382783
          5.4     0.0382796
         5.41      0.038281
         5.42     0.0382824
         5.43     0.0382838
         5.44     0.0382851
         5.45     0.0382865
         5.46     0.0382878
         5.47     0.0382892
         5.48     0.0382905
         5.49     0.0382918
          5.5     0.0382932
         5.51     0.0382945
         5.52     0.0382958
         5.53     0.0382971
         5.54     0.0382984
         5.55     0.0382997
         5.56      0.038301
         5.57     0.0383023
         5.58     0.0383036
         5.59     0.0383048
          5.6     0.0383061
         5.61     0.0383074
         5.62     0.0383086
         5.63     0.0383099
         5.64     0.0383112
         5.65     0.0383124
         5.66     0.0383136
         5.67     0.0383149
         5.68     0.0383161
         5.69     0.0383173
          5.7     0.0383186
         5.71     0.0383198
         5.72      0.038321
         5.73     0.0383222
         5.74     0.0383234
         5.75     0.0383246
         5.76     0.0383258
         5.77      0.038327
         5.78     0.0383281
         5.79     0.0383293
          5.8     0.0383305
         5.81     0.0383317
         5.82     0.0383328
         5.83      0.038334
         5.84     0.0383351
         5.85     0.0383363
         5.86     0.0383374
         5.87     0.0383386
         5.88     0.0383397
         5.89     0.0383408
          5.9      0.038342
         5.91     0.0383431
         5.92     0.0383442
         5.93     0.0383453
         5.94     0.0383464
         5.95     0.0383475
         5.96     0.0383487
         5.97     0.0383497
         5.98     0.0383508
         5.99     0.0383519
            6      0.038353
         6.01     0.0383541
         6.02     0.0383552
         6.03     0.0383563
         6.04     0.0383573
         6.05     0.0383584
         6.06     0.0383594
         6.07     0.0383605
         6.08     0.0383616
         6.09     0.0383626
          6.1     0.0383637
         6.11     0.0383647
         6.12     0.0383657
         6.13     0.0383668
         6.14     0.0383678
         6.15     0.0383688
         6.16     0.0383699
         6.17     0.0383709
         6.18     0.0383719
         6.19     0.0383729
          6.2     0.0383739
         6.21     0.0383749
         6.22     0.0383759
         6.23     0.0383769
         6.24     0.0383779
         6.25     0.0383789
         6.26     0.0383799
         6.27     0.0383809
         6.28     0.0383819
         6.29     0.0383828
          6.3     0.0383838
         6.31     0.0383848
         6.32     0.0383857
         6.33     0.0383867
         6.34     0.0383877
         6.35     0.0383886
         6.36     0.0383896
         6.37     0.0383905
         6.38     0.0383915
         6.39     0.0383924
          6.4     0.0383934
         6.41     0.0383943
         6.42     0.0383952
         6.43     0.0383962
         6.44     0.0383971
         6.45      0.038398
         6.46     0.0383989
         6.47     0.0383998
         6.48     0.0384008
         6.49     0.0384017
          6.5     0.0384026
         6.51     0.0384035
         6.52     0.0384044
         6.53     0.0384053
         6.54     0.0384062
         6.55     0.0384071
         6.56      0.038408
         6.57     0.0384089
         6.58     0.0384097
         6.59     0.0384106
          6.6     0.0384115
         6.61     0.0384124
         6.62     0.0384132
         6.63     0.0384141
         6.64      0.038415
         6.65     0.0384158
         6.66     0.0384167
         6.67     0.0384176
         6.68     0.0384184
         6.69     0.0384193
          6.7     0.0384201
         6.71      0.038421
         6.72     0.0384218
         6.73     0.0384227
         6.74     0.0384235
         6.75     0.0384243
         6.76     0.0384252
         6.77      0.038426
         6.78     0.0384268
         6.79     0.0384277
          6.8     0.0384285
         6.81     0.0384293
         6.82     0.0384301
         6.83     0.0384309
         6.84     0.0384317
         6.85     0.0384326
         6.86     0.0384334
         6.87     0.0384342
         6.88      0.038435
         6.89     0.0384358
          6.9     0.0384366
         6.91     0.0384374
         6.92     0.0384382
         6.93      0.038439
         6.94     0.0384397
         6.95     0.0384405
         6.96     0.0384413
         6.97     0.0384421
         6.98     0.0384429
         6.99     0.0384436
            7     0.0384444
         7.01     0.0384452
         7.02      0.038446
         7.03     0.0384467
         7.04     0.0384475
         7.05     0.0384482
         7.06      0.038449
         7.07     0.0384498
         7.08     0.0384505
         7.09     0.0384513
          7.1      0.038452
         7.11     0.0384528
         7.12     0.0384535
         7.13     0.0384543
         7.14      0.038455
         7.15     0.0384557
         7.16     0.0384565
         7.17     0.0384572
         7.18     0.0384579
         7.19     0.0384587
          7.2     0.0384594
         7.21     0.0384601
         7.22     0.0384609
         7.23     0.0384616
         7.24     0.0384623
         7.25      0.038463
         7.26     0.0384637
         7.27     0.0384644
         7.28     0.0384652
         7.29     0.0384659
          7.3     0.0384666
         7.31     0.0384673
         7.32      0.038468
         7.33     0.0384687
         7.34     0.0384694
         7.35     0.0384701
         7.36     0.0384708
         7.37     0.0384715
         7.38     0.0384722
         7.39     0.0384729
          7.4     0.0384735
         7.41     0.0384742
         7.42     0.0384749
         7.43     0.0384756
         7.44     0.0384763
         7.45     0.0384769
         7.46     0.0384776
         7.47     0.0384783
         7.48      0.038479
         7.49     0.0384796
          7.5     0.0384803
         7.51      0.038481
         7.52     0.0384816
         7.53     0.0384823
         7.54      0.038483
         7.55     0.0384836
         7.56     0.0384843
         7.57     0.0384849
         7.58     0.0384856
         7.59     0.0384862
          7.6     0.0384869
         7.61     0.0384875
         7.62     0.0384882
         7.63     0.0384888
         7.64     0.0384895
         7.65     0.0384901
         7.66     0.0384908
         7.67     0.0384914
         7.68      0.038492
         7.69     0.0384927
          7.7     0.0384933
         7.71     0.0384939
         7.72     0.0384946
         7.73     0.0384952
         7.74     0.0384958
         7.75     0.0384964
         7.76     0.0384971
         7.77     0.0384977
         7.78     0.0384983
         7.79     0.0384989
          7.8     0.0384995
         7.81     0.0385001
         7.82     0.0385008
         7.83     0.0385014
         7.84      0.038502
         7.85     0.0385026
         7.86     0.0385032
         7.87     0.0385038
         7.88     0.0385044
         7.89      0.038505
          7.9     0.0385056
         7.91     0.0385062
         7.92     0.0385068
         7.93     0.0385074
         7.94      0.038508
         7.95     0.0385086
         7.96     0.0385092
         7.97     0.0385098
         7.98     0.0385103
         7.99     0.0385109
            8     0.0385115
         8.01     0.0385121
         8.02     0.0385127
         8.03     0.0385133
         8.04     0.0385138
         8.05     0.0385144
         8.06      0.038515
         8.07     0.0385156
         8.08     0.0385161
         8.09     0.0385167
          8.1     0.0385173
         8.11     0.0385178
         8.12     0.0385184
         8.13      0.038519
         8.14     0.0385195
         8.15     0.0385201
         8.16     0.0385207
         8.17     0.0385212
         8.18     0.0385218
         8.19     0.0385223
          8.2     0.0385229
         8.21     0.0385234
         8.22      0.038524
         8.23     0.0385246
         8.24     0.0385251
         8.25     0.0385257
         8.26     0.0385262
         8.27     0.0385267
         8.28     0.0385273
         8.29     0.0385278
          8.3     0.0385284
         8.31     0.0385289
         8.32     0.0385295
         8.33       0.03853
         8.34     0.0385305
         8.35     0.0385311
         8.36     0.0385316
         8.37     0.0385321
         8.38     0.0385327
         8.39     0.0385332
          8.4     0.0385337
         8.41     0.0385343
         8.42     0.0385348
         8.43     0.0385353
         8.44     0.0385358
         8.45     0.0385364
         8.46     0.0385369
         8.47     0.0385374
         8.48     0.0385379
         8.49     0.0385384
          8.5     0.0385389
         8.51     0.0385395
         8.52       0.03854
         8.53     0.0385405
         8.54      0.038541
         8.55     0.0385415
         8.56      0.038542
         8.57     0.0385425
         8.58      0.038543
         8.59     0.0385435
          8.6      0.038544
         8.61     0.0385445
         8.62     0.0385451
         8.63     0.0385456
         8.64     0.0385461
         8.65     0.0385466
         8.66      0.038547
         8.67     0.0385475
         8.68      0.038548
         8.69     0.0385485
          8.7      0.038549
         8.71     0.0385495
         8.72       0.03855
         8.73     0.0385505
         8.74      0.038551
         8.75     0.0385515
         8.76      0.038552
         8.77     0.0385524
         8.78     0.0385529
         8.79     0.0385534
          8.8     0.0385539
         8.81     0.0385544
         8.82     0.0385549
         8.83     0.0385553
         8.84     0.0385558
         8.85     0.0385563
         8.86     0.0385568
         8.87     0.0385572
         8.88     0.0385577
         8.89     0.0385582
          8.9     0.0385587
         8.91     0.0385591
         8.92     0.0385596
         8.93     0.0385601
         8.94     0.0385605
         8.95      0.038561
         8.96     0.0385615
         8.97     0.0385619
         8.98     0.0385624
         8.99     0.0385628
            9     0.0385633
         9.01     0.0385638
         9.02     0.0385642
         9.03     0.0385647
         9.04     0.0385651
         9.05     0.0385656
         9.06      0.038566
         9.07     0.0385665
         9.08      0.038567
         9.09     0.0385674
          9.1     0.0385679
         9.11     0.0385683
         9.12     0.0385688
         9.13     0.0385692
         9.14     0.0385696
         9.15     0.0385701
         9.16     0.0385705
         9.17      0.038571
         9.18     0.0385714
         9.19     0.0385719
          9.2     0.0385723
         9.21     0.0385727
         9.22     0.0385732
         9.23     0.0385736
         9.24     0.0385741
         9.25     0.0385745
         9.26     0.0385749
         9.27     0.0385754
         9.28     0.0385758
         9.29     0.0385762
          9.3     0.0385767
         9.31     0.0385771
         9.32     0.0385775
         9.33      0.038578
         9.34     0.0385784
         9.35     0.0385788
         9.36     0.0385792
         9.37     0.0385797
         9.38     0.0385801
         9.39     0.0385805
          9.4     0.0385809
         9.41     0.0385814
         9.42     0.0385818
         9.43     0.0385822
         9.44     0.0385826
         9.45      0.038583
         9.46     0.0385834
         9.47     0.0385839
         9.48     0.0385843
         9.49     0.0385847
          9.5     0.0385851
         9.51     0.0385855
         9.52     0.0385859
         9.53     0.0385863
         9.54     0.0385868
         9.55     0.0385872
         9.56     0.0385876
         9.57      0.038588
         9.58     0.0385884
         9.59     0.0385888
          9.6     0.0385892
         9.61     0.0385896
         9.62       0.03859
         9.63     0.0385904
         9.64     0.0385908
         9.65     0.0385912
         9.66     0.0385916
         9.67      0.038592
         9.68     0.0385924
         9.69     0.0385928
          9.7     0.0385932
         9.71     0.0385936
         9.72      0.038594
         9.73     0.0385944
         9.74     0.0385948
         9.75     0.0385952
         9.76     0.0385956
         9.77      0.038596
         9.78     0.0385964
         9.79     0.0385968
          9.8     0.0385971
         9.81     0.0385975
         9.82     0.0385979
         9.83     0.0385983
         9.84     0.0385987
         9.85     0.0385991
         9.86     0.0385995
         9.87     0.0385998
         9.88     0.0386002
         9.89     0.0386006
          9.9      0.038601
         9.91     0.0386014
         9.92     0.0386018
         9.93     0.0386021
         9.94     0.0386025
         9.95     0.0386029
         9.96     0.0386033
         9.97     0.0386036
         9.98      0.038604
         9.99     0.0386044
           10     0.0386048
        10.01     0.0386051
        10.02     0.0386055
        10.03     0.0386059
        10.04     0.0386063
        10.05     0.0386066
        10.06      0.038607
        10.07     0.0386074
        10.08     0.0386077
        10.09     0.0386081
         10.1     0.0386085
        10.11     0.0386088
        10.12     0.0386092
        10.13     0.0386096
        10.14     0.0386099
        10.15     0.0386103
        10.16     0.0386107
        10.17      0.038611
        10.18     0.0386114
        10.19     0.0386118
         10.2     0.0386121
        10.21     0.0386125
        10.22     0.0386128
        10.23     0.0386132
        10.24     0.0386136
        10.25     0.0386139
        10.26     0.0386143
        10.27     0.0386146
        10.28      0.038615
        10.29     0.0386153
         10.3     0.0386157
        10.31      0.038616
        10.32     0.0386164
        10.33     0.0386167
        10.34     0.0386171
        10.35     0.0386174
        10.36     0.0386178
        10.37     0.0386181
        10.38     0.0386185
        10.39     0.0386188
         10.4     0.0386192
        10.41     0.0386195
        10.42     0.0386199
        10.43     0.0386202
        10.44     0.0386206
        10.45     0.0386209
        10.46     0.0386213
        10.47     0.0386216
        10.48     0.0386219
        10.49     0.0386223
         10.5     0.0386226
        10.51      0.038623
        10.52     0.0386233
        10.53     0.0386236
        10.54      0.038624
        10.55     0.0386243
        10.56     0.0386247
        10.57      0.038625
        10.58     0.0386253
        10.59     0.0386257
         10.6      0.038626
        10.61     0.0386263
        10.62     0.0386267
        10.63      0.038627
        10.64     0.0386273
        10.65     0.0386277
        10.66      0.038628
        10.67     0.0386283
        10.68     0.0386287