# Probe 0 (0.05 0.05 0.005)
#       Probe             0
#        Time
         0.01          0.04
         0.02          0.04
         0.03     0.0399998
         0.04     0.0399995
         0.05     0.0399988
         0.06     0.0399975
         0.07     0.0399953
         0.08     0.0399919
         0.09     0.0399869
          0.1     0.0399799
         0.11     0.0399704
         0.12     0.0399579
         0.13     0.0399417
         0.14     0.0399213
         0.15     0.0398959
         0.16     0.0398649
         0.17     0.0398275
         0.18     0.0397828
         0.19       0.03973
          0.2     0.0396683
         0.21     0.0395967
         0.22     0.0395142
         0.23       0.03942
         0.24      0.039313
         0.25     0.0391923
         0.26     0.0390569
         0.27     0.0389057
         0.28      0.038738
         0.29     0.0385527
          0.3     0.0383489
         0.31     0.0381258
         0.32     0.0378827
         0.33     0.0376187
         0.34     0.0373334
         0.35     0.0370261
         0.36     0.0366965
         0.37     0.0363441
         0.38     0.0359689
         0.39     0.0355706
          0.4     0.0351496
         0.41     0.0347058
         0.42     0.0342398
         0.43      0.033752
         0.44     0.0332432
         0.45     0.0327141
         0.46     0.0321657
         0.47     0.0315992
         0.48     0.0310158
         0.49     0.0304168
          0.5     0.0298038
         0.51     0.0291783
         0.52      0.028542
         0.53     0.0278966
         0.54     0.0272439
         0.55     0.0265857
         0.56     0.0259237
         0.57     0.0252599
         0.58     0.0245959
         0.59     0.0239336
          0.6     0.0232745
         0.61     0.0226203
         0.62     0.0219725
         0.63     0.0213326
         0.64     0.0207018
         0.65     0.0200813
         0.66     0.0194723
         0.67     0.0188757
         0.68     0.0182924
         0.69     0.0177231
          0.7     0.0171685
         0.71     0.0166289
         0.72     0.0161049
         0.73     0.0155966
         0.74     0.0151044
         0.75     0.0146282
         0.76     0.0141682
         0.77     0.0137241
         0.78      0.013296
         0.79     0.0128836
          0.8     0.0124867
         0.81     0.0121049
         0.82      0.011738
         0.83     0.0113856
         0.84     0.0110472
         0.85     0.0107226
         0.86     0.0104111
         0.87     0.0101126
         0.88    0.00982633
         0.89    0.00955203
          0.9     0.0092892
         0.91     0.0090374
         0.92    0.00879618
         0.93     0.0085651
         0.94    0.00834375
         0.95     0.0081317
         0.96    0.00792855
         0.97     0.0077339
         0.98    0.00754738
         0.99    0.00736862
            1    0.00719725
         1.01    0.00703295
         1.02    0.00687538
         1.03    0.00672423
         1.04     0.0065792
         1.05       0.00644
         1.06    0.00630636
         1.07    0.00617802
         1.08    0.00605472
         1.09    0.00593624
          1.1    0.00582234
         1.11     0.0057128
         1.12    0.00560744
         1.13    0.00550604
         1.14    0.00540843
         1.15    0.00531442
         1.16    0.00522386
         1.17    0.00513658
         1.18    0.00505244
         1.19    0.00497129
          1.2    0.00489299
         1.21    0.00481742
         1.22    0.00474446
         1.23    0.00467399
         1.24    0.00460589
         1.25    0.00454007
         1.26    0.00447642
         1.27    0.00441486
         1.28    0.00435529
         1.29    0.00429762
          1.3    0.00424178
         1.31    0.00418769
         1.32    0.00413527
         1.33    0.00408447
         1.34     0.0040352
         1.35    0.00398741
         1.36    0.00394104
         1.37    0.00389603
         1.38    0.00385233
         1.39    0.00380988
          1.4    0.00376864
         1.41    0.00372856
         1.42     0.0036896
         1.43     0.0036517
         1.44    0.00361484
         1.45    0.00357898
         1.46    0.00354407
         1.47    0.00351008
         1.48    0.00347698
         1.49    0.00344473
          1.5    0.00341331
         1.51    0.00338268
         1.52    0.00335282
         1.53     0.0033237
         1.54     0.0032953
         1.55    0.00326758
         1.56    0.00324053
         1.57    0.00321413
         1.58    0.00318835
         1.59    0.00316317
          1.6    0.00313857
         1.61    0.00311453
         1.62    0.00309103
         1.63    0.00306807
         1.64    0.00304561
         1.65    0.00302365
         1.66    0.00300216
         1.67    0.00298114
         1.68    0.00296057
         1.69    0.00294043
          1.7    0.00292072
         1.71    0.00290141
         1.72     0.0028825
         1.73    0.00286398
         1.74    0.00284583
         1.75    0.00282805
         1.76    0.00281061
         1.77    0.00279352
         1.78    0.00277676
         1.79    0.00276033
          1.8    0.00274421
         1.81    0.00272839
         1.82    0.00271287
         1.83    0.00269764
         1.84    0.00268269
         1.85    0.00266802
         1.86    0.00265361
         1.87    0.00263946
         1.88    0.00262556
         1.89    0.00261191
          1.9     0.0025985
         1.91    0.00258532
         1.92    0.00257237
         1.93    0.00255964
         1.94    0.00254712
         1.95    0.00253482
         1.96    0.00252272
         1.97    0.00251082
         1.98    0.00249912
         1.99    0.00248761
            2    0.00247628
         2.01    0.00246513
         2.02    0.00245416
         2.03    0.00244337
         2.04    0.00243274
         2.05    0.00242228
         2.06    0.00241198
         2.07    0.00240184
         2.08    0.00239185
         2.09    0.00238201
          2.1    0.00237232
         2.11    0.00236277
         2.12    0.00235336
         2.13    0.00234409
         2.14    0.00233496
         2.15    0.00232595
         2.16    0.00231708
         2.17    0.00230833
         2.18     0.0022997
         2.19     0.0022912
          2.2    0.00228281
         2.21    0.00227454
         2.22    0.00226638
         2.23    0.00225833
         2.24     0.0022504
         2.25    0.00224256
         2.26    0.00223484
         2.27    0.00222721
         2.28    0.00221968
         2.29    0.00221226
          2.3    0.00220493
         2.31    0.00219769
         2.32    0.00219055
         2.33    0.00218349
         2.34    0.00217653
         2.35    0.00216965
         2.36    0.00216286
         2.37    0.00215615
         2.38    0.00214953
         2.39    0.00214298
          2.4    0.00213652
         2.41    0.00213013
         2.42    0.00212382
         2.43    0.00211758
         2.44    0.00211142
         2.45    0.00210533
         2.46    0.00209931
         2.47    0.00209336
         2.48    0.00208748
         2.49    0.00208167
          2.5    0.00207593
         2.51    0.00207024
         2.52    0.00206463
         2.53    0.00205907
         2.54    0.00205358
         2.55    0.00204815
         2.56    0.00204278
         2.57    0.00203746
         2.58    0.00203221
         2.59    0.00202701
          2.6    0.00202186
         2.61    0.00201678
         2.62    0.00201174
         2.63    0.00200676
         2.64    0.00200183
         2.65    0.00199695
         2.66    0.00199213
         2.67    0.00198735
         2.68    0.00198262
         2.69    0.00197794
          2.7    0.00197331
         2.71    0.00196872
         2.72    0.00196418
         2.73    0.00195968
         2.74    0.00195523
         2.75    0.00195083
         2.76    0.00194647
         2.77    0.00194214
         2.78    0.00193787
         2.79    0.00193363
          2.8    0.00192943
         2.81    0.00192527
         2.82    0.00192116
         2.83    0.00191708
         2.84    0.00191304
         2.85    0.00190904
         2.86    0.00190507
         2.87    0.00190114
         2.88    0.00189725
         2.89     0.0018934
          2.9    0.00188957
         2.91    0.00188579
         2.92    0.00188204
         2.93    0.00187832
         2.94    0.00187463
         2.95    0.00187098
         2.96    0.00186736
         2.97    0.00186377
         2.98    0.00186021
         2.99    0.00185669
            3    0.00185319
         3.01    0.00184972
         3.02    0.00184629
         3.03    0.00184288
         3.04     0.0018395
         3.05    0.00183616
         3.06    0.00183284
         3.07    0.00182954
         3.08    0.00182628
         3.09    0.00182304
          3.1    0.00181983
         3.11    0.00181664
         3.12    0.00181348
         3.13    0.00181035
         3.14    0.00180724
         3.15    0.00180416
         3.16     0.0018011
         3.17    0.00179807
         3.18    0.00179506
         3.19    0.00179207
          3.2    0.00178911
         3.21    0.00178617
         3.22    0.00178326
         3.23    0.00178036
         3.24    0.00177749
         3.25    0.00177465
         3.26    0.00177182
         3.27    0.00176901
         3.28    0.00176623
         3.29    0.00176347
          3.3    0.00176073
         3.31    0.00175801
         3.32    0.00175531
         3.33    0.00175263
         3.34    0.00174996
         3.35    0.00174732
         3.36     0.0017447
         3.37     0.0017421
         3.38    0.00173952
         3.39    0.00173695
          3.4    0.00173441
         3.41    0.00173188
         3.42    0.00172937
         3.43    0.00172688
         3.44     0.0017244
         3.45    0.00172195
         3.46    0.00171951
         3.47    0.00171709
         3.48    0.00171468
         3.49    0.00171229
          3.5    0.00170992
         3.51    0.00170757
         3.52    0.00170523
         3.53    0.00170291
         3.54     0.0017006
         3.55    0.00169831
         3.56    0.00169603
         3.57    0.00169377
         3.58    0.00169153
         3.59     0.0016893
          3.6    0.00168708
         3.61    0.00168488
         3.62     0.0016827
         3.63    0.00168052
         3.64    0.00167837
         3.65    0.00167622
         3.66    0.00167409
         3.67    0.00167198
         3.68    0.00166988
         3.69    0.00166779
          3.7    0.00166571
         3.71    0.00166365
         3.72    0.00166161
         3.73    0.00165957
         3.74    0.00165755
         3.75    0.00165554
         3.76    0.00165354
         3.77    0.00165156
         3.78    0.00164958
         3.79    0.00164762
          3.8    0.00164568
         3.81    0.00164374
         3.82    0.00164182
         3.83     0.0016399
         3.84      0.001638
         3.85    0.00163612
         3.86    0.00163424
         3.87    0.00163237
         3.88    0.00163052
         3.89    0.00162867
          3.9    0.00162684
         3.91    0.00162502
         3.92    0.00162321
         3.93    0.00162141
         3.94    0.00161962
         3.95    0.00161784
         3.96    0.00161607
         3.97    0.00161431
         3.98    0.00161256
         3.99    0.00161082
            4     0.0016091
         4.01    0.00160738
         4.02    0.00160567
         4.03    0.00160397
         4.04    0.00160228
         4.05     0.0016006
         4.06    0.00159893
         4.07    0.00159727
         4.08    0.00159562
         4.09    0.00159398
          4.1    0.00159234
         4.11    0.00159072
         4.12    0.00158911
         4.13     0.0015875
         4.14     0.0015859
         4.15    0.00158431
         4.16    0.00158273
         4.17    0.00158116
         4.18     0.0015796
         4.19    0.00157805
          4.2     0.0015765
         4.21    0.00157496
         4.22    0.00157343
         4.23    0.00157191
         4.24     0.0015704
         4.25    0.00156889
         4.26     0.0015674
         4.27    0.00156591
         4.28    0.00156443
         4.29    0.00156295
          4.3    0.00156149
         4.31    0.00156003
         4.32    0.00155858
         4.33    0.00155714
         4.34     0.0015557
         4.35    0.00155427
         4.36    0.00155285
         4.37    0.00155144
         4.38    0.00155003
         4.39    0.00154863
          4.4    0.00154724
         4.41    0.00154585
         4.42    0.00154448
         4.43    0.00154311
         4.44    0.00154174
         4.45    0.00154038
         4.46    0.00153903
         4.47    0.00153769
         4.48    0.00153635
         4.49    0.00153502
          4.5    0.00153369
         4.51    0.00153238
         4.52    0.00153107
         4.53    0.00152976
         4.54    0.00152846
         4.55    0.00152717
         4.56    0.00152588
         4.57     0.0015246
         4.58    0.00152333
         4.59    0.00152206
          4.6     0.0015208
         4.61    0.00151954
         4.62    0.00151829
         4.63    0.00151705
         4.64    0.00151581
         4.65    0.00151458
         4.66    0.00151335
         4.67    0.00151213
         4.68    0.00151092
         4.69    0.00150971
          4.7     0.0015085
         4.71     0.0015073
         4.72    0.00150611
         4.73    0.00150492
         4.74    0.00150374
         4.75    0.00150257
         4.76     0.0015014
         4.77    0.00150023
         4.78    0.00149907
         4.79    0.00149791
          4.8    0.00149676
         4.81    0.00149562
         4.82    0.00149448
         4.83    0.00149335
         4.84    0.00149222
         4.85    0.00149109
         4.86    0.00148997
         4.87    0.00148886
         4.88    0.00148775
         4.89    0.00148664
          4.9    0.00148554
         4.91    0.00148445
         4.92    0.00148336
         4.93    0.00148227
         4.94    0.00148119
         4.95    0.00148011
         4.96    0.00147904
         4.97    0.00147798
         4.98    0.00147691
         4.99    0.00147586
            5     0.0014748
         5.01    0.00147375
         5.02    0.00147271
         5.03    0.00147167
         5.04    0.00147063
         5.05     0.0014696
         5.06    0.00146858
         5.07    0.00146755
         5.08    0.00146653
         5.09    0.00146552
          5.1    0.00146451
         5.11    0.00146351
         5.12     0.0014625
         5.13    0.00146151
         5.14    0.00146051
         5.15    0.00145952
         5.16    0.00145854
         5.17    0.00145756
         5.18    0.00145658
         5.19    0.00145561
          5.2    0.00145464
         5.21    0.00145367
         5.22    0.00145271
         5.23    0.00145176
         5.24     0.0014508
         5.25    0.00144985
         5.26    0.00144891
         5.27    0.00144796
         5.28    0.00144703
         5.29    0.00144609
          5.3    0.00144516
         5.31    0.00144423
         5.32    0.00144331
         5.33    0.00144239
         5.34    0.00144147
         5.35    0.00144056
         5.36    0.00143965
         5.37    0.00143874
         5.38    0.00143784
         5.39    0.00143694
          5.4    0.00143605
         5.41    0.00143516
         5.42    0.00143427
         5.43    0.00143338
         5.44     0.0014325
         5.45    0.00143162
         5.46    0.00143075
         5.47    0.00142988
         5.48    0.00142901
         5.49    0.00142814
          5.5    0.00142728
         5.51    0.00142642
         5.52    0.00142557
         5.53    0.00142471
         5.54    0.00142387
         5.55    0.00142302
         5.56    0.00142218
         5.57    0.00142134
         5.58     0.0014205
         5.59    0.00141967
          5.6    0.00141884
         5.61    0.00141801
         5.62    0.00141719
         5.63    0.00141637
         5.64    0.00141555
         5.65    0.00141473
         5.66    0.00141392
         5.67    0.00141311
         5.68    0.00141231
         5.69     0.0014115
          5.7     0.0014107
         5.71     0.0014099
         5.72    0.00140911
         5.73    0.00140832
         5.74    0.00140753
         5.75    0.00140674
         5.76    0.00140596
         5.77    0.00140518
         5.78     0.0014044
         5.79    0.00140362
          5.8    0.00140285
         5.81    0.00140208
         5.82    0.00140132
         5.83    0.00140055
         5.84    0.00139979
         5.85    0.00139903
         5.86    0.00139827
         5.87    0.00139752
         5.88    0.00139677
         5.89    0.00139602
          5.9    0.00139527
         5.91    0.00139453
         5.92    0.00139379
         5.93    0.00139305
         5.94    0.00139232
         5.95    0.00139158
         5.96    0.00139085
         5.97    0.00139012
         5.98     0.0013894
         5.99    0.00138868
            6    0.00138795
         6.01    0.00138724
         6.02    0.00138652
         6.03    0.00138581
         6.04    0.00138509
         6.05    0.00138439
         6.06    0.00138368
         6.07    0.00138297
         6.08    0.00138227
         6.09    0.00138157
          6.1    0.00138088
         6.11    0.00138018
         6.12    0.00137949
         6.13     0.0013788
         6.14    0.00137811
         6.15    0.00137742
         6.16    0.00137674
         6.17    0.00137606
         6.18    0.00137538
         6.19     0.0013747
          6.2    0.00137403
         6.21    0.00137336
         6.22    0.00137268
         6.23    0.00137202
         6.24    0.00137135
         6.25    0.00137069
         6.26    0.00137002
         6.27    0.00136936
         6.28    0.00136871
         6.29    0.00136805
          6.3     0.0013674
         6.31    0.00136675
         6.32     0.0013661
         6.33    0.00136545
         6.34     0.0013648
         6.35    0.00136416
         6.36    0.00136352
         6.37    0.00136288
         6.38    0.00136224
         6.39    0.00136161
          6.4    0.00136097
         6.41    0.00136034
         6.42    0.00135971
         6.43    0.00135909
         6.44    0.00135846
         6.45    0.00135784
         6.46    0.00135722
         6.47     0.0013566
         6.48    0.00135598
         6.49    0.00135536
          6.5    0.00135475
         6.51    0.00135414
         6.52    0.00135353
         6.53    0.00135292
         6.54    0.00135231
         6.55    0.00135171
         6.56     0.0013511
         6.57     0.0013505
         6.58     0.0013499
         6.59     0.0013493
          6.6    0.00134871
         6.61    0.00134811
         6.62    0.00134752
         6.63    0.00134693
         6.64    0.00134634
         6.65    0.00134576
         6.66    0.00134517
         6.67    0.00134459
         6.68    0.00134401
         6.69    0.00134342
          6.7    0.00134285
         6.71    0.00134227
         6.72    0.00134169
         6.73    0.00134112
         6.74    0.00134055
         6.75    0.00133998
         6.76    0.00133941
         6.77    0.00133884
         6.78    0.00133828
         6.79    0.00133772
          6.8    0.00133715
         6.81    0.00133659
         6.82    0.00133604
         6.83    0.00133548
         6.84    0.00133492
         6.85    0.00133437
         6.86    0.00133382
         6.87    0.00133327
         6.88    0.00133272
         6.89    0.00133217
          6.9    0.00133162
         6.91    0.00133108
         6.92    0.00133054
         6.93    0.00132999
         6.94    0.00132945
         6.95    0.00132892
         6.96    0.00132838
         6.97    0.00132784
         6.98    0.00132731
         6.99    0.00132678
            7    0.00132625
         7.01    0.00132572
         7.02    0.00132519
         7.03    0.00132466
         7.04    0.00132414
         7.05    0.00132361
         7.06    0.00132309
         7.07    0.00132257
         7.08    0.00132205
         7.09    0.00132153
          7.1    0.00132102
         7.11     0.0013205
         7.12    0.00131999
         7.13    0.00131948
         7.14    0.00131897
         7.15    0.00131846
         7.16    0.00131795
         7.17    0.00131744
         7.18    0.00131694
         7.19    0.00131643
          7.2    0.00131593
         7.21    0.00131543
         7.22    0.00131493
         7.23    0.00131443
         7.24    0.00131393
         7.25    0.00131344
         7.26    0.00131294
         7.27    0.00131245
         7.28    0.00131196
         7.29    0.00131147
          7.3    0.00131098
         7.31    0.00131049
         7.32       0.00131
         7.33    0.00130952
         7.34    0.00130903
         7.35    0.00130855
         7.36    0.00130807
         7.37    0.00130759
         7.38    0.00130711
         7.39    0.00130663
          7.4    0.00130615
         7.41    0.00130568
         7.42     0.0013052
         7.43    0.00130473
         7.44    0.00130426
         7.45    0.00130379
         7.46    0.00130332
         7.47    0.00130285
         7.48    0.00130238
         7.49    0.00130192
          7.5    0.00130145
         7.51    0.00130099
         7.52    0.00130052
         7.53    0.00130006
         7.54     0.0012996
         7.55    0.00129914
         7.56    0.00129869
         7.57    0.00129823
         7.58    0.00129777
         7.59    0.00129732
          7.6    0.00129687
         7.61    0.00129642
         7.62    0.00129596
         7.63    0.00129552
         7.64    0.00129507
         7.65    0.00129462
         7.66    0.00129417
         7.67    0.00129373
         7.68    0.00129328
         7.69    0.00129284
          7.7     0.0012924
         7.71    0.00129196
         7.72    0.00129152
         7.73    0.00129108
         7.74    0.00129064
         7.75    0.00129021
         7.76    0.00128977
         7.77    0.00128934
         7.78     0.0012889
         7.79    0.00128847
          7.8    0.00128804
         7.81    0.00128761
         7.82    0.00128718
         7.83    0.00128675
         7.84    0.00128632
         7.85     0.0012859
         7.86    0.00128547
         7.87    0.00128505
         7.88    0.00128463
         7.89     0.0012842
          7.9    0.00128378
         7.91    0.00128336
         7.92    0.00128294
         7.93    0.00128253
         7.94    0.00128211
         7.95    0.00128169
         7.96    0.00128128
         7.97    0.00128086
         7.98    0.00128045
         7.99    0.00128004
            8    0.00127963
         8.01    0.00127922
         8.02    0.00127881
         8.03     0.0012784
         8.04    0.00127799
         8.05    0.00127759
         8.06    0.00127718
         8.07    0.00127678
         8.08    0.00127637
         8.09    0.00127597
          8.1    0.00127557
         8.11    0.00127517
         8.12    0.00127477
         8.13    0.00127437
         8.14    0.00127397
         8.15    0.00127358
         8.16    0.00127318
         8.17    0.00127279
         8.18    0.00127239
         8.19      0.001272
          8.2    0.00127161
         8.21    0.00127121
         8.22    0.00127082
         8.23    0.00127043
         8.24    0.00127004
         8.25    0.00126966
         8.26    0.00126927
         8.27    0.00126888
         8.28     0.0012685
         8.29    0.00126811
          8.3    0.00126773
         8.31    0.00126735
         8.32    0.00126697
         8.33    0.00126658
         8.34     0.0012662
         8.35    0.00126583
         8.36    0.00126545
         8.37    0.00126507
         8.38    0.00126469
         8.39    0.00126432
          8.4    0.00126394
         8.41    0.00126357
         8.42    0.00126319
         8.43    0.00126282
         8.44    0.00126245
         8.45    0.00126208
         8.46    0.00126171
         8.47    0.00126134
         8.48    0.00126097
         8.49     0.0012606
          8.5    0.00126024
         8.51    0.00125987
         8.52     0.0012595
         8.53    0.00125914
         8.54    0.00125878
         8.55    0.00125841
         8.56    0.00125805
         8.57    0.00125769
         8.58    0.00125733
         8.59    0.00125697
          8.6    0.00125661
         8.61    0.00125625
         8.62    0.00125589
         8.63    0.00125554
         8.64    0.00125518
         8.65    0.00125483
         8.66    0.00125447
         8.67    0.00125412
         8.68    0.00125377
         8.69    0.00125341
          8.7    0.00125306
         8.71    0.00125271
         8.72    0.00125236
         8.73    0.00125201
         8.74    0.00125166
         8.75    0.00125132
         8.76    0.00125097
         8.77    0.00125062
         8.78    0.00125028
         8.79    0.00124993
          8.8    0.00124959
         8.81    0.00124925
         8.82     0.0012489
         8.83    0.00124856
         8.84    0.00124822
         8.85    0.00124788
         8.86    0.00124754
         8.87     0.0012472
         8.88    0.00124686
         8.89    0.00124653
          8.9    0.00124619
         8.91    0.00124585
         8.92    0.00124552
         8.93    0.00124518
         8.94    0.00124485
         8.95    0.00124451
         8.96    0.00124418
         8.97    0.00124385
         8.98    0.00124352
         8.99    0.00124319
            9    0.00124286
         9.01    0.00124253
         9.02     0.0012422
         9.03    0.00124187
         9.04    0.00124154
         9.05    0.00124122
         9.06    0.00124089
         9.07    0.00124057
         9.08    0.00124024
         9.09    0.00123992
          9.1    0.00123959
         9.11    0.00123927
         9.12    0.00123895
         9.13    0.00123863
         9.14    0.00123831
         9.15    0.00123799
         9.16    0.00123767
         9.17    0.00123735
         9.18    0.00123703
         9.19    0.00123671
          9.2    0.00123639
         9.21    0.00123608
         9.22    0.00123576
         9.23    0.00123545
         9.24    0.00123513
         9.25    0.00123482
         9.26    0.00123451
         9.27    0.00123419
         9.28    0.00123388
         9.29    0.00123357
          9.3    0.00123326
         9.31    0.00123295
         9.32    0.00123264
         9.33    0.00123233
         9.34    0.00123202
         9.35    0.00123171
         9.36    0.00123141
         9.37     0.0012311
         9.38    0.00123079
         9.39    0.00123049
          9.4    0.00123018
         9.41    0.00122988
         9.42    0.00122958
         9.43    0.00122927
         9.44    0.00122897
         9.45    0.00122867
         9.46    0.00122837
         9.47    0.00122807
         9.48    0.00122777
         9.49    0.00122747
          9.5    0.00122717
         9.51    0.00122687
         9.52    0.00122657
         9.53    0.00122628
         9.54    0.00122598
         9.55    0.00122568
         9.56    0.00122539
         9.57    0.00122509
         9.58     0.0012248
         9.59     0.0012245
          9.6    0.00122421
         9.61    0.00122392
         9.62    0.00122363
         9.63    0.00122333
         9.64    0.00122304
         9.65    0.00122275
         9.66    0.00122246
         9.67    0.00122217
         9.68    0.00122188
         9.69     0.0012216
          9.7    0.00122131
         9.71    0.00122102
         9.72    0.00122073
         9.73    0.00122045
         9.74    0.00122016
         9.75    0.00121988
         9.76    0.00121959
         9.77    0.00121931
         9.78    0.00121902
         9.79    0.00121874
          9.8    0.00121846
         9.81    0.00121818
         9.82     0.0012179
         9.83    0.00121761
         9.84    0.00121733
         9.85    0.00121705
         9.86    0.00121677
         9.87     0.0012165
         9.88    0.00121622
         9.89    0.00121594
          9.9    0.00121566
         9.91    0.00121538
         9.92    0.00121511
         9.93    0.00121483
         9.94    0.00121456
         9.95    0.00121428
         9.96    0.00121401
         9.97    0.00121373
         9.98    0.00121346
         9.99    0.00121319
           10    0.00121292
        10.01    0.00121264
        10.02    0.00121237
        10.03     0.0012121
        10.04    0.00121183
        10.05    0.00121156
        10.06    0.00121129
        10.07    0.00121102
        10.08    0.00121075
        10.09    0.00121049
         10.1    0.00121022
        10.11    0.00120995
        10.12    0.00120968
        10.13    0.00120942
        10.14    0.00120915
        10.15    0.00120889
        10.16    0.00120862
        10.17    0.00120836
        10.18    0.00120809
        10.19    0.00120783
         10.2    0.00120757
        10.21    0.00120731
        10.22    0.00120704
        10.23    0.00120678
        10.24    0.00120652
        10.25    0.00120626
        10.26      0.001206
        10.27    0.00120574
        10.28    0.00120548
        10.29    0.00120522
         10.3    0.00120496
        10.31    0.00120471
        10.32    0.00120445
        10.33    0.00120419
        10.34    0.00120394
        10.35    0.00120368
        10.36    0.00120342
        10.37    0.00120317
        10.38    0.00120291
        10.39    0.00120266
         10.4    0.00120241
        10.41    0.00120215
        10.42     0.0012019
        10.43    0.00120165
        10.44    0.00120139
        10.45    0.00120114
        10.46    0.00120089
        10.47    0.00120064
        10.48    0.00120039
        10.49    0.00120014
         10.5    0.00119989
        10.51    0.00119964
        10.52    0.00119939
        10.53    0.00119914
        10.54     0.0011989
        10.55    0.00119865
        10.56     0.0011984
        10.57    0.00119816
        10.58    0.00119791
        10.59    0.00119766
         10.6    0.00119742
        10.61    0.00119717
        10.62    0.00119693
        10.63    0.00119668
        10.64    0.00119644
        10.65     0.0011962
        10.66    0.00119595
        10.67    0.00119571
        10.68    0.00119547