# Probe 0 (0.05 0.05 0.005)
#       Probe             0
#        Time
         0.01          0.04
         0.02          0.04
         0.03          0.04
         0.04     0.0399999
         0.05     0.0399997
         0.06     0.0399994
         0.07      0.039999
         0.08     0.0399982
         0.09     0.0399972
          0.1     0.0399956
         0.11     0.0399936
         0.12     0.0399909
         0.13     0.0399874
         0.14     0.0399829
         0.15     0.0399774
         0.16     0.0399707
         0.17     0.0399625
         0.18     0.0399528
         0.19     0.0399413
          0.2     0.0399278
         0.21     0.0399121
         0.22     0.0398939
         0.23     0.0398731
         0.24     0.0398494
         0.25     0.0398226
         0.26     0.0397923
         0.27     0.0397584
         0.28     0.0397205
         0.29     0.0396783
          0.3     0.0396316
         0.31     0.0395801
         0.32     0.0395234
         0.33     0.0394613
         0.34     0.0393934
         0.35     0.0393194
         0.36     0.0392391
         0.37     0.0391521
         0.38     0.0390581
         0.39     0.0389567
          0.4     0.0388477
         0.41     0.0387308
         0.42     0.0386057
         0.43      0.038472
         0.44     0.0383296
         0.45     0.0381781
         0.46     0.0380172
         0.47     0.0378468
         0.48     0.0376666
         0.49     0.0374764
          0.5      0.037276
         0.51     0.0370652
         0.52      0.036844
         0.53     0.0366121
         0.54     0.0363695
         0.55     0.0361161
         0.56     0.0358518
         0.57     0.0355767
         0.58     0.0352907
         0.59      0.034994
          0.6     0.0346866
         0.61     0.0343686
         0.62     0.0340402
         0.63     0.0337015
         0.64     0.0333527
         0.65     0.0329942
         0.66     0.0326262
         0.67     0.0322491
         0.68      0.031863
         0.69     0.0314686
          0.7     0.0310661
         0.71      0.030656
         0.72     0.0302387
         0.73     0.0298148
         0.74     0.0293848
         0.75     0.0289491
         0.76     0.0285084
         0.77     0.0280632
         0.78      0.027614
         0.79     0.0271616
          0.8     0.0267063
         0.81     0.0262489
         0.82       0.02579
         0.83     0.0253301
         0.84     0.0248698
         0.85     0.0244097
         0.86     0.0239504
         0.87     0.0234925
         0.88     0.0230364
         0.89     0.0225828
          0.9     0.0221321
         0.91     0.0216848
         0.92     0.0212413
         0.93     0.0208023
         0.94     0.0203679
         0.95     0.0199387
         0.96      0.019515
         0.97     0.0190972
         0.98     0.0186855
         0.99     0.0182802
            1     0.0178816
         1.01       0.01749
         1.02     0.0171054
         1.03     0.0167282
         1.04     0.0163583
         1.05     0.0159961
         1.06     0.0156415
         1.07     0.0152946
         1.08     0.0149555
         1.09     0.0146243
          1.1     0.0143008
         1.11     0.0139852
         1.12     0.0136773
         1.13     0.0133773
         1.14     0.0130849
         1.15     0.0128001
         1.16     0.0125228
         1.17      0.012253
         1.18     0.0119906
         1.19     0.0117354
          1.2     0.0114872
         1.21     0.0112461
         1.22     0.0110118
         1.23     0.0107842
         1.24     0.0105631
         1.25     0.0103485
         1.26     0.0101401
         1.27    0.00993783
         1.28    0.00974152
         1.29      0.009551
          1.3    0.00936613
         1.31    0.00918676
         1.32    0.00901273
         1.33    0.00884389
         1.34    0.00868008
         1.35    0.00852117
         1.36    0.00836701
         1.37    0.00821744
         1.38    0.00807234
         1.39    0.00793156
          1.4    0.00779496
         1.41    0.00766242
         1.42    0.00753381
         1.43    0.00740899
         1.44    0.00728785
         1.45    0.00717026
         1.46    0.00705611
         1.47    0.00694529
         1.48    0.00683769
         1.49    0.00673319
          1.5     0.0066317
         1.51    0.00653312
         1.52    0.00643735
         1.53    0.00634429
         1.54    0.00625385
         1.55    0.00616595
         1.56     0.0060805
         1.57    0.00599743
         1.58    0.00591664
         1.59    0.00583806
          1.6    0.00576163
         1.61    0.00568726
         1.62    0.00561489
         1.63    0.00554446
         1.64    0.00547589
         1.65    0.00540914
         1.66    0.00534413
         1.67    0.00528081
         1.68    0.00521912
         1.69    0.00515902
          1.7    0.00510044
         1.71    0.00504335
         1.72    0.00498769
         1.73    0.00493341
         1.74    0.00488048
         1.75    0.00482885
         1.76    0.00477847
         1.77    0.00472931
         1.78    0.00468134
         1.79     0.0046345
          1.8    0.00458877
         1.81    0.00454412
         1.82    0.00450051
         1.83     0.0044579
         1.84    0.00441627
         1.85    0.00437559
         1.86    0.00433582
         1.87    0.00429695
         1.88    0.00425894
         1.89    0.00422177
          1.9    0.00418542
         1.91    0.00414985
         1.92    0.00411505
         1.93      0.004081
         1.94    0.00404766
         1.95    0.00401503
         1.96    0.00398309
         1.97     0.0039518
         1.98    0.00392116
         1.99    0.00389115
            2    0.00386174
         2.01    0.00383292
         2.02    0.00380469
         2.03      0.003777
         2.04    0.00374987
         2.05    0.00372326
         2.06    0.00369717
         2.07    0.00367158
         2.08    0.00364648
         2.09    0.00362185
          2.1    0.00359768
         2.11    0.00357397
         2.12    0.00355069
         2.13    0.00352785
         2.14    0.00350542
         2.15    0.00348339
         2.16    0.00346176
         2.17    0.00344051
         2.18    0.00341965
         2.19    0.00339914
          2.2      0.003379
         2.21     0.0033592
         2.22    0.00333975
         2.23    0.00332062
         2.24    0.00330182
         2.25    0.00328334
         2.26    0.00326517
         2.27    0.00324729
         2.28    0.00322971
         2.29    0.00321242
          2.3    0.00319541
         2.31    0.00317867
         2.32     0.0031622
         2.33    0.00314599
         2.34    0.00313004
         2.35    0.00311434
         2.36    0.00309888
         2.37    0.00308366
         2.38    0.00306867
         2.39    0.00305391
          2.4    0.00303938
         2.41    0.00302506
         2.42    0.00301096
         2.43    0.00299707
         2.44    0.00298338
         2.45    0.00296989
         2.46     0.0029566
         2.47     0.0029435
         2.48    0.00293059
         2.49    0.00291786
          2.5    0.00290531
         2.51    0.00289294
         2.52    0.00288074
         2.53    0.00286871
         2.54    0.00285685
         2.55    0.00284515
         2.56    0.00283361
         2.57    0.00282222
         2.58    0.00281099
         2.59    0.00279991
          2.6    0.00278897
         2.61    0.00277818
         2.62    0.00276754
         2.63    0.00275702
         2.64    0.00274665
         2.65    0.00273641
         2.66     0.0027263
         2.67    0.00271632
         2.68    0.00270646
         2.69    0.00269673
          2.7    0.00268712
         2.71    0.00267763
         2.72    0.00266826
         2.73      0.002659
         2.74    0.00264985
         2.75    0.00264082
         2.76    0.00263189
         2.77    0.00262307
         2.78    0.00261436
         2.79    0.00260575
          2.8    0.00259724
         2.81    0.00258883
         2.82    0.00258051
         2.83     0.0025723
         2.84    0.00256417
         2.85    0.00255614
         2.86    0.00254821
         2.87    0.00254036
         2.88     0.0025326
         2.89    0.00252492
          2.9    0.00251734
         2.91    0.00250983
         2.92    0.00250241
         2.93    0.00249507
         2.94    0.00248781
         2.95    0.00248063
         2.96    0.00247352
         2.97    0.00246649
         2.98    0.00245954
         2.99    0.00245266
            3    0.00244585
         3.01    0.00243911
         3.02    0.00243244
         3.03    0.00242585
         3.04    0.00241932
         3.05    0.00241285
         3.06    0.00240646
         3.07    0.00240012
         3.08    0.00239386
         3.09    0.00238765
          3.1    0.00238151
         3.11    0.00237542
         3.12     0.0023694
         3.13    0.00236344
         3.14    0.00235753
         3.15    0.00235169
         3.16     0.0023459
         3.17    0.00234016
         3.18    0.00233448
         3.19    0.00232886
          3.2    0.00232328
         3.21    0.00231776
         3.22     0.0023123
         3.23    0.00230688
         3.24    0.00230151
         3.25     0.0022962
         3.26    0.00229093
         3.27    0.00228571
         3.28    0.00228054
         3.29    0.00227541
          3.3    0.00227034
         3.31     0.0022653
         3.32    0.00226032
         3.33    0.00225537
         3.34    0.00225047
         3.35    0.00224562
         3.36     0.0022408
         3.37    0.00223603
         3.38     0.0022313
         3.39    0.00222661
          3.4    0.00222197
         3.41    0.00221736
         3.42    0.00221279
         3.43    0.00220826
         3.44    0.00220377
         3.45    0.00219931
         3.46     0.0021949
         3.47    0.00219052
         3.48    0.00218618
         3.49    0.00218187
          3.5     0.0021776
         3.51    0.00217336
         3.52    0.00216916
         3.53    0.00216499
         3.54    0.00216086
         3.55    0.00215676
         3.56    0.00215269
         3.57    0.00214866
         3.58    0.00214465
         3.59    0.00214068
          3.6    0.00213674
         3.61    0.00213283
         3.62    0.00212896
         3.63    0.00212511
         3.64    0.00212129
         3.65     0.0021175
         3.66    0.00211374
         3.67    0.00211001
         3.68    0.00210631
         3.69    0.00210264
          3.7    0.00209899
         3.71    0.00209537
         3.72    0.00209178
         3.73    0.00208822
         3.74    0.00208468
         3.75    0.00208117
         3.76    0.00207768
         3.77    0.00207422
         3.78    0.00207079
         3.79    0.00206738
          3.8    0.00206399
         3.81    0.00206063
         3.82    0.00205729
         3.83    0.00205398
         3.84    0.00205069
         3.85    0.00204743
         3.86    0.00204419
         3.87    0.00204097
         3.88    0.00203777
         3.89     0.0020346
          3.9    0.00203144
         3.91    0.00202831
         3.92    0.00202521
         3.93    0.00202212
         3.94    0.00201905
         3.95    0.00201601
         3.96    0.00201299
         3.97    0.00200998
         3.98      0.002007
         3.99    0.00200404
            4    0.00200109
         4.01    0.00199817
         4.02    0.00199527
         4.03    0.00199238
         4.04    0.00198952
         4.05    0.00198667
         4.06    0.00198385
         4.07    0.00198104
         4.08    0.00197825
         4.09    0.00197547
          4.1    0.00197272
         4.11    0.00196998
         4.12    0.00196726
         4.13    0.00196456
         4.14    0.00196188
         4.15    0.00195921
         4.16    0.00195656
         4.17    0.00195393
         4.18    0.00195131
         4.19    0.00194871
          4.2    0.00194612
         4.21    0.00194356
         4.22      0.001941
         4.23    0.00193847
         4.24    0.00193595
         4.25    0.00193344
         4.26    0.00193095
         4.27    0.00192847
         4.28    0.00192602
         4.29    0.00192357
          4.3    0.00192114
         4.31    0.00191872
         4.32    0.00191632
         4.33    0.00191394
         4.34    0.00191156
         4.35    0.00190921
         4.36    0.00190686
         4.37    0.00190453
         4.38    0.00190221
         4.39    0.00189991
          4.4    0.00189762
         4.41    0.00189534
         4.42    0.00189308
         4.43    0.00189083
         4.44    0.00188859
         4.45    0.00188637
         4.46    0.00188416
         4.47    0.00188196
         4.48    0.00187977
         4.49     0.0018776
          4.5    0.00187543
         4.51    0.00187328
         4.52    0.00187115
         4.53    0.00186902
         4.54    0.00186691
         4.55     0.0018648
         4.56    0.00186271
         4.57    0.00186063
         4.58    0.00185857
         4.59    0.00185651
          4.6    0.00185447
         4.61    0.00185243
         4.62    0.00185041
         4.63     0.0018484
         4.64     0.0018464
         4.65    0.00184441
         4.66    0.00184243
         4.67    0.00184046
         4.68     0.0018385
         4.69    0.00183655
          4.7    0.00183461
         4.71    0.00183269
         4.72    0.00183077
         4.73    0.00182886
         4.74    0.00182697
         4.75    0.00182508
         4.76     0.0018232
         4.77    0.00182133
         4.78    0.00181947
         4.79    0.00181763
          4.8    0.00181579
         4.81    0.00181396
         4.82    0.00181214
         4.83    0.00181033
         4.84    0.00180853
         4.85    0.00180673
         4.86    0.00180495
         4.87    0.00180317
         4.88    0.00180141
         4.89    0.00179965
          4.9     0.0017979
         4.91    0.00179617
         4.92    0.00179443
         4.93    0.00179271
         4.94      0.001791
         4.95    0.00178929
         4.96     0.0017876
         4.97    0.00178591
         4.98    0.00178423
         4.99    0.00178256
            5    0.00178089
         5.01    0.00177924
         5.02    0.00177759
         5.03    0.00177595
         5.04    0.00177432
         5.05    0.00177269
         5.06    0.00177108
         5.07    0.00176947
         5.08    0.00176787
         5.09    0.00176627
          5.1    0.00176469
         5.11    0.00176311
         5.12    0.00176154
         5.13    0.00175997
         5.14    0.00175842
         5.15    0.00175687
         5.16    0.00175532
         5.17    0.00175379
         5.18    0.00175226
         5.19    0.00175074
          5.2    0.00174923
         5.21    0.00174772
         5.22    0.00174622
         5.23    0.00174473
         5.24    0.00174324
         5.25    0.00174176
         5.26    0.00174029
         5.27    0.00173882
         5.28    0.00173736
         5.29    0.00173591
          5.3    0.00173446
         5.31    0.00173302
         5.32    0.00173159
         5.33    0.00173016
         5.34    0.00172874
         5.35    0.00172732
         5.36    0.00172591
         5.37    0.00172451
         5.38    0.00172311
         5.39    0.00172172
          5.4    0.00172034
         5.41    0.00171896
         5.42    0.00171759
         5.43    0.00171622
         5.44    0.00171486
         5.45    0.00171351
         5.46    0.00171216
         5.47    0.00171082
         5.48    0.00170948
         5.49    0.00170815
          5.5    0.00170682
         5.51     0.0017055
         5.52    0.00170418
         5.53    0.00170288
         5.54    0.00170157
         5.55    0.00170027
         5.56    0.00169898
         5.57    0.00169769
         5.58    0.00169641
         5.59    0.00169513
          5.6    0.00169386
         5.61     0.0016926
         5.62    0.00169133
         5.63    0.00169008
         5.64    0.00168883
         5.65    0.00168758
         5.66    0.00168634
         5.67    0.00168511
         5.68    0.00168388
         5.69    0.00168265
          5.7    0.00168143
         5.71    0.00168021
         5.72      0.001679
         5.73     0.0016778
         5.74     0.0016766
         5.75     0.0016754
         5.76    0.00167421
         5.77    0.00167302
         5.78    0.00167184
         5.79    0.00167066
          5.8    0.00166949
         5.81    0.00166832
         5.82    0.00166716
         5.83      0.001666
         5.84    0.00166484
         5.85    0.00166369
         5.86    0.00166255
         5.87    0.00166141
         5.88    0.00166027
         5.89    0.00165914
          5.9    0.00165801
         5.91    0.00165689
         5.92    0.00165577
         5.93    0.00165465
         5.94    0.00165354
         5.95    0.00165243
         5.96    0.00165133
         5.97    0.00165023
         5.98    0.00164914
         5.99    0.00164805
            6    0.00164696
         6.01    0.00164588
         6.02     0.0016448
         6.03    0.00164373
         6.04    0.00164266
         6.05    0.00164159
         6.06    0.00164053
         6.07    0.00163948
         6.08    0.00163842
         6.09    0.00163737
          6.1    0.00163633
         6.11    0.00163528
         6.12    0.00163424
         6.13    0.00163321
         6.14    0.00163218
         6.15    0.00163115
         6.16    0.00163013
         6.17    0.00162911
         6.18    0.00162809
         6.19    0.00162708
          6.2    0.00162607
         6.21    0.00162507
         6.22    0.00162407
         6.23    0.00162307
         6.24    0.00162207
         6.25    0.00162108
         6.26    0.00162009
         6.27    0.00161911
         6.28    0.00161813
         6.29    0.00161715
          6.3    0.00161618
         6.31    0.00161521
         6.32    0.00161424
         6.33    0.00161328
         6.34    0.00161232
         6.35    0.00161136
         6.36    0.00161041
         6.37    0.00160946
         6.38    0.00160851
         6.39    0.00160757
          6.4    0.00160663
         6.41    0.00160569
         6.42    0.00160476
         6.43    0.00160383
         6.44     0.0016029
         6.45    0.00160198
         6.46    0.00160106
         6.47    0.00160014
         6.48    0.00159923
         6.49    0.00159831
          6.5    0.00159741
         6.51     0.0015965
         6.52     0.0015956
         6.53     0.0015947
         6.54     0.0015938
         6.55    0.00159291
         6.56    0.00159202
         6.57    0.00159113
         6.58    0.00159025
         6.59    0.00158937
          6.6    0.00158849
         6.61    0.00158761
         6.62    0.00158674
         6.63    0.00158587
         6.64      0.001585
         6.65    0.00158414
         6.66    0.00158328
         6.67    0.00158242
         6.68    0.00158156
         6.69    0.00158071
          6.7    0.00157986
         6.71    0.00157901
         6.72    0.00157817
         6.73    0.00157732
         6.74    0.00157648
         6.75    0.00157565
         6.76    0.00157481
         6.77    0.00157398
         6.78    0.00157315
         6.79    0.00157233
          6.8     0.0015715
         6.81    0.00157068
         6.82    0.00156987
         6.83    0.00156905
         6.84    0.00156824
         6.85    0.00156743
         6.86    0.00156662
         6.87    0.00156581
         6.88    0.00156501
         6.89    0.00156421
          6.9    0.00156341
         6.91    0.00156262
         6.92    0.00156182
         6.93    0.00156103
         6.94    0.00156024
         6.95    0.00155946
         6.96    0.00155868
         6.97     0.0015579
         6.98    0.00155712
         6.99    0.00155634
            7    0.00155557
         7.01     0.0015548
         7.02    0.00155403
         7.03    0.00155326
         7.04     0.0015525
         7.05    0.00155173
         7.06    0.00155098
         7.07    0.00155022
         7.08    0.00154946
         7.09    0.00154871
          7.1    0.00154796
         7.11    0.00154721
         7.12    0.00154647
         7.13    0.00154572
         7.14    0.00154498
         7.15    0.00154424
         7.16     0.0015435
         7.17    0.00154277
         7.18    0.00154204
         7.19    0.00154131
          7.2    0.00154058
         7.21    0.00153985
         7.22    0.00153913
         7.23     0.0015384
         7.24    0.00153768
         7.25    0.00153697
         7.26    0.00153625
         7.27    0.00153554
         7.28    0.00153483
         7.29    0.00153412
          7.3    0.00153341
         7.31     0.0015327
         7.32      0.001532
         7.33     0.0015313
         7.34     0.0015306
         7.35     0.0015299
         7.36    0.00152921
         7.37    0.00152851
         7.38    0.00152782
         7.39    0.00152713
          7.4    0.00152644
         7.41    0.00152576
         7.42    0.00152508
         7.43    0.00152439
         7.44    0.00152371
         7.45    0.00152304
         7.46    0.00152236
         7.47    0.00152169
         7.48    0.00152101
         7.49    0.00152034
          7.5    0.00151968
         7.51    0.00151901
         7.52    0.00151834
         7.53    0.00151768
         7.54    0.00151702
         7.55    0.00151636
         7.56     0.0015157
         7.57    0.00151505
         7.58     0.0015144
         7.59    0.00151374
          7.6    0.00151309
         7.61    0.00151245
         7.62     0.0015118
         7.63    0.00151115
         7.64    0.00151051
         7.65    0.00150987
         7.66    0.00150923
         7.67    0.00150859
         7.68    0.00150796
         7.69    0.00150732
          7.7    0.00150669
         7.71    0.00150606
         7.72    0.00150543
         7.73     0.0015048
         7.74    0.00150418
         7.75    0.00150355
         7.76    0.00150293
         7.77    0.00150231
         7.78    0.00150169
         7.79    0.00150107
          7.8    0.00150046
         7.81    0.00149984
         7.82    0.00149923
         7.83    0.00149862
         7.84    0.00149801
         7.85     0.0014974
         7.86     0.0014968
         7.87    0.00149619
         7.88    0.00149559
         7.89    0.00149499
          7.9    0.00149439
         7.91    0.00149379
         7.92    0.00149319
         7.93     0.0014926
         7.94      0.001492
         7.95    0.00149141
         7.96    0.00149082
         7.97    0.00149023
         7.98    0.00148964
         7.99    0.00148906
            8    0.00148847
         8.01    0.00148789
         8.02    0.00148731
         8.03    0.00148673
         8.04    0.00148615
         8.05    0.00148557
         8.06      0.001485
         8.07    0.00148442
         8.08    0.00148385
         8.09    0.00148328
          8.1    0.00148271
         8.11    0.00148214
         8.12    0.00148157
         8.13    0.00148101
         8.14    0.00148044
         8.15    0.00147988
         8.16    0.00147932
         8.17    0.00147876
         8.18     0.0014782
         8.19    0.00147764
          8.2    0.00147709
         8.21    0.00147653
         8.22    0.00147598
         8.23    0.00147543
         8.24    0.00147488
         8.25    0.00147433
         8.26    0.00147378
         8.27    0.00147324
         8.28    0.00147269
         8.29    0.00147215
          8.3    0.00147161
         8.31    0.00147107
         8.32    0.00147053
         8.33    0.00146999
         8.34    0.00146945
         8.35    0.00146892
         8.36    0.00146838
         8.37    0.00146785
         8.38    0.00146732
         8.39    0.00146679
          8.4    0.00146626
         8.41    0.00146573
         8.42     0.0014652
         8.43    0.00146468
         8.44    0.00146415
         8.45    0.00146363
         8.46    0.00146311
         8.47    0.00146259
         8.48    0.00146207
         8.49    0.00146155
          8.5    0.00146104
         8.51    0.00146052
         8.52    0.00146001
         8.53    0.00145949
         8.54    0.00145898
         8.55    0.00145847
         8.56    0.00145796
         8.57    0.00145745
         8.58    0.00145695
         8.59    0.00145644
          8.6    0.00145594
         8.61    0.00145543
         8.62    0.00145493
         8.63    0.00145443
         8.64    0.00145393
         8.65    0.00145343
         8.66    0.00145294
         8.67    0.00145244
         8.68    0.00145194
         8.69    0.00145145
          8.7    0.00145096
         8.71    0.00145046
         8.72    0.00144997
         8.73    0.00144948
         8.74      0.001449
         8.75    0.00144851
         8.76    0.00144802
         8.77    0.00144754
         8.78    0.00144705
         8.79    0.00144657
          8.8    0.00144609
         8.81    0.00144561
         8.82    0.00144513
         8.83    0.00144465
         8.84    0.00144417
         8.85     0.0014437
         8.86    0.00144322
         8.87    0.00144275
         8.88    0.00144227
         8.89     0.0014418
          8.9    0.00144133
         8.91    0.00144086
         8.92    0.00144039
         8.93    0.00143992
         8.94    0.00143946
         8.95    0.00143899
         8.96    0.00143853
         8.97    0.00143806
         8.98     0.0014376
         8.99    0.00143714
            9    0.00143668
         9.01    0.00143622
         9.02    0.00143576
         9.03     0.0014353
         9.04    0.00143485
         9.05    0.00143439
         9.06    0.00143394
         9.07    0.00143348
         9.08    0.00143303
         9.09    0.00143258
          9.1    0.00143213
         9.11    0.00143168
         9.12    0.00143123
         9.13    0.00143078
         9.14    0.00143034
         9.15    0.00142989
         9.16    0.00142945
         9.17      0.001429
         9.18    0.00142856
         9.19    0.00142812
          9.2    0.00142768
         9.21    0.00142724
         9.22     0.0014268
         9.23    0.00142636
         9.24    0.00142592
         9.25    0.00142548
         9.26    0.00142505
         9.27    0.00142462
         9.28    0.00142418
         9.29    0.00142375
          9.3    0.00142332
         9.31    0.00142289
         9.32    0.00142246
         9.33    0.00142203
         9.34     0.0014216
         9.35    0.00142117
         9.36    0.00142075
         9.37    0.00142032
         9.38     0.0014199
         9.39    0.00141947
          9.4    0.00141905
         9.41    0.00141863
         9.42    0.00141821
         9.43    0.00141779
         9.44    0.00141737
         9.45    0.00141695
         9.46    0.00141653
         9.47    0.00141612
         9.48     0.0014157
         9.49    0.00141529
          9.5    0.00141487
         9.51    0.00141446
         9.52    0.00141405
         9.53    0.00141364
         9.54    0.00141323
         9.55    0.00141282
         9.56    0.00141241
         9.57      0.001412
         9.58    0.00141159
         9.59    0.00141119
          9.6    0.00141078
         9.61    0.00141038
         9.62    0.00140997
         9.63    0.00140957
         9.64    0.00140917
         9.65    0.00140876
         9.66    0.00140836
         9.67    0.00140796
         9.68    0.00140757
         9.69    0.00140717
          9.7    0.00140677
         9.71    0.00140637
         9.72    0.00140598
         9.73    0.00140558
         9.74    0.00140519
         9.75    0.00140479
         9.76     0.0014044
         9.77    0.00140401
         9.78    0.00140362
         9.79    0.00140323
          9.8    0.00140284
         9.81    0.00140245
         9.82    0.00140206
         9.83    0.00140168
         9.84    0.00140129
         9.85     0.0014009
         9.86    0.00140052
         9.87    0.00140013
         9.88    0.00139975
         9.89    0.00139937
          9.9    0.00139899
         9.91    0.00139861
         9.92    0.00139822
         9.93    0.00139785
         9.94    0.00139747
         9.95    0.00139709
         9.96    0.00139671
         9.97    0.00139633
         9.98    0.00139596
         9.99    0.00139558
           10    0.00139521
        10.01    0.00139483
        10.02    0.00139446
        10.03    0.00139409
        10.04    0.00139372
        10.05    0.00139335
        10.06    0.00139298
        10.07    0.00139261
        10.08    0.00139224
        10.09    0.00139187
         10.1     0.0013915
        10.11    0.00139114
        10.12    0.00139077
        10.13     0.0013904
        10.14    0.00139004
        10.15    0.00138968
        10.16    0.00138931
        10.17    0.00138895
        10.18    0.00138859
        10.19    0.00138823
         10.2    0.00138787
        10.21    0.00138751
        10.22    0.00138715
        10.23    0.00138679
        10.24    0.00138643
        10.25    0.00138607
        10.26    0.00138572
        10.27    0.00138536
        10.28    0.00138501
        10.29    0.00138465
         10.3     0.0013843
        10.31    0.00138395
        10.32    0.00138359
        10.33    0.00138324
        10.34    0.00138289
        10.35    0.00138254
        10.36    0.00138219
        10.37    0.00138184
        10.38    0.00138149
        10.39    0.00138114
         10.4     0.0013808
        10.41    0.00138045
        10.42     0.0013801
        10.43    0.00137976
        10.44    0.00137941
        10.45    0.00137907
        10.46    0.00137873
        10.47    0.00137838
        10.48    0.00137804
        10.49     0.0013777
         10.5    0.00137736
        10.51    0.00137702
        10.52    0.00137668
        10.53    0.00137634
        10.54      0.001376
        10.55    0.00137566
        10.56    0.00137533
        10.57    0.00137499
        10.58    0.00137465
        10.59    0.00137432
         10.6    0.00137398
        10.61    0.00137365
        10.62    0.00137332
        10.63    0.00137298
        10.64    0.00137265
        10.65    0.00137232
        10.66    0.00137199
        10.67    0.00137166
        10.68    0.00137133