# Probe 0 (0.05 0.05 0.005)
#       Probe             0
#        Time
           50   8.94275e-09
          100   1.57791e-07
          150   8.33121e-07
          200   2.70104e-06
          250   6.74062e-06
          300   1.42174e-05
          350   2.65822e-05
          400    4.5731e-05
          450   7.37861e-05
          500    0.00011315
          550   0.000166496
          600   0.000236757
          650   0.000327111
          700   0.000440955
          750   0.000581882
          800   0.000753646
          850   0.000960122
          900    0.00120526
          950    0.00149301
         1000    0.00182729
         1050    0.00221188
         1100    0.00265037
         1150    0.00314604
         1200    0.00370179
         1250    0.00432004
         1300    0.00500264
         1350    0.00575076
         1400    0.00656478
         1450     0.0074443
         1500    0.00838795
         1550    0.00939343
         1600     0.0104575
         1650     0.0115757
         1700      0.012743
         1750     0.0139532
         1800     0.0151991
         1850     0.0164731
         1900     0.0177667
         1950     0.0190712
         2000     0.0203775
         2050     0.0216763
         2100     0.0229586
         2150     0.0242157
         2200     0.0254392
         2250     0.0266217
         2300     0.0277564
         2350     0.0288376
         2400     0.0298606
         2450     0.0308219
         2500     0.0317193
         2550     0.0325513
         2600     0.0333181
         2650     0.0340204
         2700       0.03466
         2750     0.0352393
         2800     0.0357616
         2850     0.0362302
         2900      0.036649
         2950      0.037022
         3000     0.0373532
         3050     0.0376465
         3100     0.0379056
         3150     0.0381343
         3200     0.0383358
         3250     0.0385132
         3300     0.0386694
         3350     0.0388069
         3400      0.038928
         3450     0.0390346
         3500     0.0391287
         3550     0.0392117
         3600     0.0392851
         3650       0.03935
         3700     0.0394076
         3750     0.0394587
         3800     0.0395041
         3850     0.0395446
         3900     0.0395807
         3950      0.039613
         4000      0.039642
         4050      0.039668
         4100     0.0396913
         4150     0.0397124
         4200     0.0397314
         4250     0.0397485
         4300     0.0397641
         4350     0.0397782
         4400     0.0397911
         4450     0.0398028
         4500     0.0398134
         4550     0.0398232
         4600     0.0398321
         4650     0.0398403
         4700     0.0398478
         4750     0.0398547
         4800      0.039861
         4850     0.0398669
         4900     0.0398723
         4950     0.0398773
         5000     0.0398819
