# Probe 0 (0.05 0.05 0.005)
#       Probe             0
#        Time
           50   6.47734e-06
          100   0.000114014
          150    0.00059515
          200    0.00186903
          250    0.00435833
          300    0.00817793
          350     0.0129277
          400     0.0178995
          450      0.022429
          500     0.0261811
          550     0.0291203
          600     0.0313616
          650     0.0330572
          700      0.034344
          750     0.0353294
          800     0.0360931
          850     0.0366926
          900     0.0371693
          950     0.0375532
         1000     0.0378659
         1050     0.0381235
         1100     0.0383378
         1150     0.0385178
         1200     0.0386703
         1250     0.0388004
         1300     0.0389124
         1350     0.0390092
         1400     0.0390936
         1450     0.0391676
         1500     0.0392327
         1550     0.0392903
         1600     0.0393415
         1650     0.0393872
         1700     0.0394282
         1750      0.039465
         1800     0.0394983
         1850     0.0395285
         1900     0.0395558
         1950     0.0395808
         2000     0.0396035
