# Probe 0 (0.05 0.05 0.005)
#       Probe             0
#        Time
           50     0.0399935
          100      0.039886
          150     0.0394048
          200      0.038131
          250     0.0356417
          300     0.0318221
          350     0.0270723
          400     0.0221005
          450      0.017571
          500     0.0138189
          550     0.0108797
          600     0.0086384
          650    0.00694278
          700    0.00565598
          750    0.00467054
          800    0.00390688
          850     0.0033074
          900    0.00283067
          950    0.00244681
         1000    0.00213407
         1050    0.00187648
         1100    0.00166215
         1150    0.00148216
         1200     0.0013297
         1250    0.00119955
         1300    0.00108762
         1350   0.000990734
         1400   0.000906342
         1450   0.000832415
         1500   0.000767314
         1550   0.000709705
         1600   0.000658492
         1650   0.000612773
         1700   0.000571798
         1750   0.000534937
         1800   0.000501663
         1850    0.00047153
         1900   0.000444157
         1950   0.000419221
         2000   0.000396443
