# Probe 0 (0.05 0.05 0.005)
#       Probe             0
#        Time
           50          0.04
          100     0.0399998
          150     0.0399991
          200     0.0399973
          250     0.0399932
          300     0.0399858
          350     0.0399734
          400     0.0399543
          450     0.0399262
          500     0.0398868
          550     0.0398335
          600     0.0397632
          650     0.0396729
          700      0.039559
          750     0.0394181
          800     0.0392463
          850     0.0390399
          900     0.0387947
          950      0.038507
         1000     0.0381727
         1050     0.0377881
         1100     0.0373496
         1150     0.0368539
         1200     0.0362982
         1250     0.0356799
         1300     0.0349973
         1350     0.0342492
         1400     0.0334352
         1450     0.0325557
         1500      0.031612
         1550     0.0306066
         1600     0.0295425
         1650     0.0284242
         1700     0.0272569
         1750     0.0260468
         1800     0.0248009
         1850     0.0235269
         1900     0.0222332
         1950     0.0209287
         2000     0.0196225
         2050     0.0183237
         2100     0.0170414
         2150     0.0157843
         2200     0.0145608
         2250     0.0133783
         2300     0.0122436
         2350     0.0111624
         2400     0.0101394
         2450    0.00917805
         2500    0.00828073
         2550    0.00744863
         2600    0.00668188
         2650    0.00597959
         2700    0.00534001
         2750    0.00476064
         2800     0.0042384
         2850    0.00376977
         2900    0.00335094
         2950    0.00297795
         3000    0.00264679
         3050    0.00235353
         3100    0.00209437
         3150    0.00186571
         3200    0.00166421
         3250    0.00148677
         3300    0.00133057
         3350    0.00119308
         3400    0.00107201
         3450   0.000965348
         3500   0.000871297
         3550   0.000788277
         3600   0.000714906
         3650   0.000649971
         3700   0.000592415
         3750   0.000541317
         3800   0.000495875
         3850    0.00045539
         3900   0.000419256
         3950   0.000386947
         4000   0.000358002
         4050   0.000332023
         4100   0.000308662
         4150   0.000287616
         4200    0.00026862
         4250   0.000251443
         4300   0.000235882
         4350    0.00022176
         4400   0.000208922
         4450    0.00019723
         4500   0.000186565
         4550    0.00017682
         4600   0.000167901
         4650   0.000159726
         4700    0.00015222
         4750    0.00014532
         4800   0.000138965
         4850   0.000133106
         4900   0.000127696
         4950   0.000122693
         5000   0.000118061
