# Probe 0 (0.05 0.05 0.005)
#       Probe             0
#        Time
          250   8.99363e-11
          500   1.54318e-09
          750   8.26067e-09
         1000   2.68798e-08
         1250   6.66674e-08
         1500   1.40382e-07
         1750   2.63509e-07
         2000    4.5447e-07
         2250   7.34627e-07
         2500   1.12828e-06
         2750   1.66267e-06
         3000   2.36796e-06
         3250   3.27727e-06
         3500   4.42663e-06
         3750     5.855e-06
         4000   7.60428e-06
         4250   9.71927e-06
         4500   1.22477e-05
         4750   1.52402e-05
         5000   1.87502e-05
         5250   2.28342e-05
         5500   2.75514e-05
         5750    3.2964e-05
         6000   3.91369e-05
         6250    4.6138e-05
         6500   5.40377e-05
         6750   6.29095e-05
         7000   7.28293e-05
         7250   8.38761e-05
         7500   9.61313e-05
         7750   0.000109679
         8000   0.000124606
         8250   0.000141001
         8500   0.000158957
         8750   0.000178567
         9000   0.000199927
         9250   0.000223138
         9500   0.000248299
         9750   0.000275513
        10000   0.000304887
        10250   0.000336528
        10500   0.000370543
        10750   0.000407044
        11000   0.000446144
        11250   0.000487957
        11500   0.000532597
        11750   0.000580181
        12000   0.000630827
        12250   0.000684653
        12500   0.000741779
        12750   0.000802324
        13000   0.000866409
        13250   0.000934155
        13500    0.00100568
        13750    0.00108111
        14000    0.00116056
        14250    0.00124414
        14500    0.00133199
        14750    0.00142422
        15000    0.00152093
        15250    0.00162225
        15500    0.00172829
        15750    0.00183916
        16000    0.00195497
        16250    0.00207582
        16500    0.00220181
        16750    0.00233305
        17000    0.00246963
        17250    0.00261163
        17500    0.00275915
        17750    0.00291228
        18000    0.00307108
        18250    0.00323563
        18500      0.003406
        18750    0.00358225
        19000    0.00376443
        19250     0.0039526
        19500     0.0041468
        19750    0.00434707
        20000    0.00455342
        20250     0.0047659
        20500     0.0049845
        20750    0.00520923
        21000     0.0054401
        21250     0.0056771
        21500     0.0059202
        21750    0.00616937
        22000    0.00642459
        22250    0.00668581
        22500    0.00695296
        22750      0.007226
        23000    0.00750485
        23250    0.00778942
        23500    0.00807964
        23750    0.00837538
        24000    0.00867656
        24250    0.00898305
        24500    0.00929473
        24750    0.00961145
        25000    0.00993308
        25250     0.0102595
        25500     0.0105904
        25750     0.0109258
        26000     0.0112655
        26250     0.0116092
        26500     0.0119567
        26750      0.012308
        27000     0.0126627
        27250     0.0130207
        27500     0.0133817
        27750     0.0137455
        28000     0.0141119
        28250     0.0144807
        28500     0.0148516
        28750     0.0152244
        29000     0.0155989
        29250     0.0159748
        29500     0.0163518
        29750     0.0167297
        30000     0.0171083
        30250     0.0174874
        30500     0.0178666
        30750     0.0182458
        31000     0.0186246
        31250     0.0190029
        31500     0.0193804
        31750     0.0197569
        32000     0.0201321
        32250     0.0205058
        32500     0.0208778
        32750     0.0212479
        33000     0.0216158
        33250     0.0219814
        33500     0.0223444
        33750     0.0227047
        34000      0.023062
        34250     0.0234162
        34500     0.0237671
        34750     0.0241145
        35000     0.0244582
        35250     0.0247982
        35500     0.0251343
        35750     0.0254662
        36000      0.025794
        36250     0.0261175
        36500     0.0264365
        36750      0.026751
        37000     0.0270608
        37250      0.027366
        37500     0.0276663
        37750     0.0279617
        38000     0.0282522
        38250     0.0285378
        38500     0.0288183
        38750     0.0290937
        39000     0.0293639
        39250     0.0296291
        39500     0.0298891
        39750     0.0301439
        40000     0.0303936
        40250     0.0306381
        40500     0.0308774
        40750     0.0311116
        41000     0.0313406
        41250     0.0315645
        41500     0.0317834
        41750     0.0319972
        42000      0.032206
        42250     0.0324099
        42500     0.0326088
        42750     0.0328029
        43000     0.0329922
        43250     0.0331767
        43500     0.0333565
        43750     0.0335317
        44000     0.0337024
        44250     0.0338686
        44500     0.0340304
        44750     0.0341878
        45000      0.034341
        45250       0.03449
        45500     0.0346348
        45750     0.0347757
        46000     0.0349125
        46250     0.0350455
        46500     0.0351748
        46750     0.0353003
        47000     0.0354221
        47250     0.0355404
        47500     0.0356553
        47750     0.0357668
        48000     0.0358749
        48250     0.0359798
        48500     0.0360816
        48750     0.0361803
        49000      0.036276
        49250     0.0363688
        49500     0.0364588
        49750      0.036546
        50000     0.0366305
        50250     0.0367124
        50500     0.0367918
        50750     0.0368687
        51000     0.0369432
        51250     0.0370153
        51500     0.0370852
        51750     0.0371529
        52000     0.0372185
        52250      0.037282
        52500     0.0373435
        52750      0.037403
        53000     0.0374606
        53250     0.0375164
        53500     0.0375705
        53750     0.0376228
        54000     0.0376734
        54250     0.0377225
        54500     0.0377699
        54750     0.0378159
        55000     0.0378604
        55250     0.0379034
        55500     0.0379451
        55750     0.0379855
        56000     0.0380246
        56250     0.0380624
        56500      0.038099
        56750     0.0381345
        57000     0.0381688
        57250     0.0382021
        57500     0.0382343
        57750     0.0382654
        58000     0.0382956
        58250     0.0383249
        58500     0.0383532
        58750     0.0383806
        59000     0.0384072
        59250     0.0384329
        59500     0.0384578
        59750      0.038482
        60000     0.0385054
        60250     0.0385281
        60500       0.03855
        60750     0.0385713
        61000      0.038592
        61250      0.038612
        61500     0.0386314
        61750     0.0386502
        62000     0.0386684
        62250     0.0386861
        62500     0.0387032
        62750     0.0387199
        63000      0.038736
        63250     0.0387516
        63500     0.0387668
        63750     0.0387815
        64000     0.0387958
        64250     0.0388097
        64500     0.0388232
        64750     0.0388362
        65000     0.0388489
        65250     0.0388612
        65500     0.0388732
        65750     0.0388848
        66000     0.0388961
        66250      0.038907
        66500     0.0389177
        66750      0.038928
        67000     0.0389381
        67250     0.0389479
        67500     0.0389573
        67750     0.0389666
        68000     0.0389755
        68250     0.0389843
        68500     0.0389928
        68750      0.039001
        69000      0.039009
        69250     0.0390168
        69500     0.0390244
        69750     0.0390318
        70000      0.039039
        70250      0.039046
        70500     0.0390528
        70750     0.0390595
        71000     0.0390659
        71250     0.0390722
        71500     0.0390783
        71750     0.0390843
        72000     0.0390901
        72250     0.0390958
        72500     0.0391013
        72750     0.0391067
        73000     0.0391119
        73250      0.039117
        73500      0.039122
        73750     0.0391268
        74000     0.0391316
        74250     0.0391362
        74500     0.0391407
        74750     0.0391451
        75000     0.0391494
        75250     0.0391535
        75500     0.0391576
        75750     0.0391616
        76000     0.0391655
        76250     0.0391693
        76500      0.039173
        76750     0.0391766
        77000     0.0391801
        77250     0.0391835
        77500     0.0391869
        77750     0.0391902
        78000     0.0391934
        78250     0.0391965
        78500     0.0391996
        78750     0.0392026
        79000     0.0392055
        79250     0.0392084
        79500     0.0392112
        79750     0.0392139
        80000     0.0392166
        80250     0.0392192
        80500     0.0392217
        80750     0.0392242
        81000     0.0392267
        81250     0.0392291
        81500     0.0392314
        81750     0.0392337
        82000     0.0392359
        82250     0.0392381
        82500     0.0392403
        82750     0.0392424
        83000     0.0392444
        83250     0.0392464
        83500     0.0392484
        83750     0.0392503
        84000     0.0392522
        84250     0.0392541
        84500     0.0392559
        84750     0.0392576
        85000     0.0392594
        85250     0.0392611
        85500     0.0392628
        85750     0.0392644
        86000      0.039266
        86250     0.0392676
        86500     0.0392691
        86750     0.0392706
        87000     0.0392721
        87250     0.0392735
        87500      0.039275
        87750     0.0392764
        88000     0.0392777
        88250     0.0392791
        88500     0.0392804
        88750     0.0392817
        89000     0.0392829
        89250     0.0392842
        89500     0.0392854
        89750     0.0392866
        90000     0.0392878
        90250     0.0392889
        90500     0.0392901
        90750     0.0392912
        91000     0.0392923
        91250     0.0392933
        91500     0.0392944
        91750     0.0392954
        92000     0.0392964
        92250     0.0392974
        92500     0.0392984
        92750     0.0392993
        93000     0.0393003
        93250     0.0393012
        93500     0.0393021
        93750      0.039303
        94000     0.0393039
        94250     0.0393048
        94500     0.0393056
        94750     0.0393064
        95000     0.0393073
        95250     0.0393081
        95500     0.0393088
        95750     0.0393096
        96000     0.0393104
        96250     0.0393111
        96500     0.0393119
        96750     0.0393126
        97000     0.0393133
        97250      0.039314
        97500     0.0393147
        97750     0.0393154
        98000     0.0393161
        98250     0.0393167
        98500     0.0393174
        98750      0.039318
        99000     0.0393186
        99250     0.0393192
        99500     0.0393199
        99750     0.0393204
       100000      0.039321
