# Probe 0 (0.05 0.05 0.005)
#       Probe             0
#        Time
          250          0.04
          500          0.04
          750          0.04
         1000     0.0399999
         1250     0.0399997
         1500     0.0399995
         1750      0.039999
         2000     0.0399983
         2250     0.0399973
         2500     0.0399958
         2750     0.0399938
         3000     0.0399912
         3250     0.0399878
         3500     0.0399835
         3750     0.0399782
         4000     0.0399717
         4250     0.0399639
         4500     0.0399545
         4750     0.0399434
         5000     0.0399304
         5250     0.0399152
         5500     0.0398977
         5750     0.0398777
         6000     0.0398548
         6250     0.0398289
         6500     0.0397998
         6750      0.039767
         7000     0.0397304
         7250     0.0396897
         7500     0.0396446
         7750     0.0395949
         8000     0.0395401
         8250     0.0394801
         8500     0.0394145
         8750      0.039343
         9000     0.0392652
         9250      0.039181
         9500     0.0390899
         9750     0.0389917
        10000      0.038886
        10250     0.0387726
        10500     0.0386511
        10750     0.0385212
        11000     0.0383827
        11250     0.0382352
        11500     0.0380785
        11750     0.0379122
        12000     0.0377363
        12250     0.0375504
        12500     0.0373543
        12750     0.0371477
        13000     0.0369306
        13250     0.0367027
        13500      0.036464
        13750     0.0362142
        14000     0.0359533
        14250     0.0356812
        14500     0.0353978
        14750     0.0351032
        15000     0.0347974
        15250     0.0344804
        15500     0.0341523
        15750     0.0338131
        16000      0.033463
        16250     0.0331023
        16500      0.032731
        16750     0.0323495
        17000     0.0319579
        17250     0.0315566
        17500     0.0311459
        17750     0.0307261
        18000     0.0302977
        18250     0.0298611
        18500     0.0294166
        18750     0.0289648
        19000     0.0285061
        19250      0.028041
        19500     0.0275701
        19750     0.0270938
        20000     0.0266129
        20250     0.0261277
        20500     0.0256389
        20750     0.0251471
        21000     0.0246528
        21250     0.0241567
        21500     0.0236594
        21750     0.0231613
        22000     0.0226632
        22250     0.0221655
        22500     0.0216689
        22750     0.0211739
        23000     0.0206811
        23250     0.0201909
        23500     0.0197039
        23750     0.0192205
        24000     0.0187413
        24250     0.0182667
        24500     0.0177971
        24750      0.017333
        25000     0.0168746
        25250     0.0164224
        25500     0.0159767
        25750     0.0155378
        26000      0.015106
        26250     0.0146815
        26500     0.0142645
        26750     0.0138554
        27000     0.0134542
        27250     0.0130611
        27500     0.0126762
        27750     0.0122996
        28000     0.0119316
        28250      0.011572
        28500     0.0112209
        28750     0.0108784
        29000     0.0105445
        29250     0.0102192
        29500    0.00990242
        29750    0.00959413
        30000     0.0092943
        30250    0.00900283
        30500    0.00871966
        30750    0.00844468
        31000     0.0081778
        31250     0.0079189
        31500    0.00766785
        31750    0.00742453
        32000     0.0071888
        32250    0.00696051
        32500    0.00673952
        32750    0.00652568
        33000    0.00631882
        33250     0.0061188
        33500    0.00592543
        33750    0.00573858
        34000    0.00555806
        34250    0.00538371
        34500    0.00521537
        34750    0.00505286
        35000    0.00489604
        35250    0.00474473
        35500    0.00459876
        35750    0.00445799
        36000    0.00432224
        36250    0.00419137
        36500    0.00406522
        36750    0.00394363
        37000    0.00382647
        37250    0.00371357
        37500     0.0036048
        37750    0.00350002
        38000     0.0033991
        38250    0.00330189
        38500    0.00320827
        38750    0.00311812
        39000     0.0030313
        39250    0.00294771
        39500    0.00286722
        39750    0.00278972
        40000     0.0027151
        40250    0.00264325
        40500    0.00257408
        40750    0.00250748
        41000    0.00244335
        41250    0.00238161
        41500    0.00232216
        41750    0.00226492
        42000     0.0022098
        42250    0.00215672
        42500     0.0021056
        42750    0.00205637
        43000    0.00200895
        43250    0.00196328
        43500    0.00191929
        43750    0.00187691
        44000    0.00183608
        44250    0.00179674
        44500    0.00175883
        44750    0.00172229
        45000    0.00168708
        45250    0.00165314
        45500    0.00162042
        45750    0.00158888
        46000    0.00155846
        46250    0.00152913
        46500    0.00150084
        46750    0.00147355
        47000    0.00144722
        47250    0.00142182
        47500    0.00139731
        47750    0.00137366
        48000    0.00135082
        48250    0.00132878
        48500    0.00130749
        48750    0.00128694
        49000    0.00126709
        49250    0.00124792
        49500    0.00122939
        49750    0.00121149
        50000    0.00119419
        50250    0.00117747
        50500    0.00116131
        50750    0.00114568
        51000    0.00113057
        51250    0.00111596
        51500    0.00110182
        51750    0.00108814
        52000     0.0010749
        52250    0.00106209
        52500    0.00104969
        52750    0.00103769
        53000    0.00102607
        53250    0.00101481
        53500    0.00100391
        53750   0.000993346
        54000   0.000983112
        54250   0.000973195
        54500   0.000963583
        54750   0.000954266
        55000   0.000945232
        55250   0.000936472
        55500   0.000927975
        55750   0.000919734
        56000   0.000911738
        56250   0.000903979
        56500    0.00089645
        56750   0.000889141
        57000   0.000882046
        57250   0.000875157
        57500   0.000868466
        57750   0.000861968
        58000   0.000855656
        58250   0.000849523
        58500   0.000843564
        58750   0.000837772
        59000   0.000832142
        59250   0.000826668
        59500   0.000821346
        59750   0.000816171
        60000   0.000811137
        60250   0.000806241
        60500   0.000801477
        60750   0.000796841
        61000    0.00079233
        61250   0.000787938
        61500   0.000783663
        61750   0.000779501
        62000   0.000775448
        62250   0.000771501
        62500   0.000767656
        62750   0.000763911
        63000   0.000760261
        63250   0.000756705
        63500   0.000753239
        63750   0.000749861
        64000   0.000746567
        64250   0.000743356
        64500   0.000740225
        64750   0.000737171
        65000   0.000734193
        65250   0.000731287
        65500   0.000728452
        65750   0.000725686
        66000   0.000722987
        66250   0.000720352
        66500    0.00071778
        66750   0.000715269
        67000   0.000712817
        67250   0.000710423
        67500   0.000708085
        67750   0.000705801
        68000   0.000703571
        68250   0.000701391
        68500   0.000699261
        68750    0.00069718
        69000   0.000695146
        69250   0.000693158
        69500   0.000691215
        69750   0.000689315
        70000   0.000687457
        70250    0.00068564
        70500   0.000683863
        70750   0.000682125
        71000   0.000680425
        71250   0.000678762
        71500   0.000677135
        71750   0.000675542
        72000   0.000673984
        72250   0.000672458
        72500   0.000670965
        72750   0.000669504
        73000   0.000668073
        73250   0.000666672
        73500     0.0006653
        73750   0.000663956
        74000    0.00066264
        74250   0.000661351
        74500   0.000660088
        74750   0.000658851
        75000   0.000657638
        75250    0.00065645
        75500   0.000655286
        75750   0.000654145
        76000   0.000653026
        76250    0.00065193
        76500   0.000650855
        76750   0.000649801
        77000   0.000648768
        77250   0.000647754
        77500    0.00064676
        77750   0.000645785
        78000   0.000644829
        78250   0.000643891
        78500   0.000642971
        78750   0.000642068
        79000   0.000641182
        79250   0.000640312
        79500   0.000639459
        79750   0.000638622
        80000   0.000637799
        80250   0.000636992
        80500     0.0006362
        80750   0.000635422
        81000   0.000634659
        81250   0.000633909
        81500   0.000633172
        81750   0.000632449
        82000   0.000631738
        82250    0.00063104
        82500   0.000630355
        82750   0.000629681
        83000    0.00062902
        83250    0.00062837
        83500   0.000627731
        83750   0.000627103
        84000   0.000626486
        84250   0.000625879
        84500   0.000625283
        84750   0.000624697
        85000   0.000624121
        85250   0.000623555
        85500   0.000622998
        85750   0.000622451
        86000   0.000621912
        86250   0.000621383
        86500   0.000620862
        86750    0.00062035
        87000   0.000619847
        87250   0.000619351
        87500   0.000618864
        87750   0.000618384
        88000   0.000617913
        88250   0.000617448
        88500   0.000616992
        88750   0.000616542
        89000     0.0006161
        89250   0.000615665
        89500   0.000615236
        89750   0.000614815
        90000   0.000614399
        90250   0.000613991
        90500   0.000613589
        90750   0.000613193
        91000   0.000612803
        91250   0.000612419
        91500   0.000612041
        91750   0.000611668
        92000   0.000611302
        92250   0.000610941
        92500   0.000610585
        92750   0.000610235
        93000   0.000609889
        93250    0.00060955
        93500   0.000609215
        93750   0.000608885
        94000    0.00060856
        94250   0.000608239
        94500   0.000607924
        94750   0.000607613
        95000   0.000607306
        95250   0.000607004
        95500   0.000606707
        95750   0.000606413
        96000   0.000606124
        96250   0.000605839
        96500   0.000605558
        96750   0.000605281
        97000   0.000605008
        97250   0.000604739
        97500   0.000604474
        97750   0.000604212
        98000   0.000603954
        98250   0.000603699
        98500   0.000603448
        98750   0.000603201
        99000   0.000602957
        99250   0.000602716
        99500   0.000602478
        99750   0.000602244
       100000   0.000602013
