# Probe 0 (0.05 0.05 0.005)
#       Probe             0
#        Time
          250   3.34271e-10
          500   5.73562e-09
          750   3.07028e-08
         1000   9.99053e-08
         1250   2.47785e-07
         1500   5.21761e-07
         1750    9.7938e-07
         2000    1.6891e-06
         2250   2.73031e-06
         2500   4.19326e-06
         2750   6.17912e-06
         3000   8.79991e-06
         3250   1.21785e-05
         3500   1.64484e-05
         3750   2.17542e-05
         4000   2.82508e-05
         4250   3.61039e-05
         4500   4.54895e-05
         4750   5.65943e-05
         5000   6.96149e-05
         5250   8.47581e-05
         5500   0.000102241
         5750   0.000122289
         6000   0.000145138
         6250   0.000171033
         6500   0.000200228
         6750   0.000232984
         7000    0.00026957
         7250   0.000310266
         7500   0.000355353
         7750   0.000405124
         8000   0.000459873
         8250   0.000519903
         8500   0.000585518
         8750   0.000657029
         9000   0.000734745
         9250   0.000818981
         9500   0.000910049
         9750    0.00100826
        10000    0.00111394
        10250    0.00122738
        10500    0.00134889
        10750    0.00147877
        11000    0.00161731
        11250    0.00176481
        11500    0.00192153
        11750    0.00208773
        12000    0.00226368
        12250     0.0024496
        12500    0.00264572
        12750    0.00285225
        13000    0.00306936
        13250    0.00329724
        13500    0.00353601
        13750     0.0037858
        14000    0.00404671
        14250    0.00431882
        14500    0.00460215
        14750    0.00489674
        15000    0.00520257
        15250    0.00551959
        15500    0.00584773
        15750    0.00618689
        16000    0.00653694
        16250     0.0068977
        16500    0.00726897
        16750    0.00765052
        17000     0.0080421
        17250     0.0084434
        17500     0.0088541
        17750    0.00927384
        18000    0.00970225
        18250     0.0101389
        18500     0.0105834
        18750     0.0110352
        19000     0.0114939
        19250      0.011959
        19500     0.0124299
        19750     0.0129061
        20000     0.0133871
        20250     0.0138723
        20500     0.0143611
        20750     0.0148529
        21000     0.0153471
        21250     0.0158432
        21500     0.0163406
        21750     0.0168387
        22000     0.0173368
        22250     0.0178345
        22500     0.0183311
        22750     0.0188261
        23000     0.0193189
        23250     0.0198091
        23500     0.0202961
        23750     0.0207795
        24000     0.0212587
        24250     0.0217333
        24500     0.0222029
        24750      0.022667
        25000     0.0231254
        25250     0.0235776
        25500     0.0240233
        25750     0.0244622
        26000      0.024894
        26250     0.0253185
        26500     0.0257354
        26750     0.0261446
        27000     0.0265458
        27250     0.0269389
        27500     0.0273238
        27750     0.0277003
        28000     0.0280684
        28250      0.028428
        28500     0.0287791
        28750     0.0291216
        29000     0.0294555
        29250     0.0297808
        29500     0.0300976
        29750     0.0304058
        30000     0.0307057
        30250     0.0309972
        30500     0.0312803
        30750     0.0315553
        31000     0.0318222
        31250     0.0320811
        31500     0.0323321
        31750     0.0325755
        32000     0.0328112
        32250     0.0330395
        32500     0.0332605
        32750     0.0334743
        33000     0.0336812
        33250     0.0338812
        33500     0.0340745
        33750     0.0342614
        34000     0.0344419
        34250     0.0346163
        34500     0.0347846
        34750     0.0349471
        35000     0.0351039
        35250     0.0352553
        35500     0.0354012
        35750      0.035542
        36000     0.0356777
        36250     0.0358086
        36500     0.0359348
        36750     0.0360563
        37000     0.0361735
        37250     0.0362864
        37500     0.0363952
        37750        0.0365
        38000     0.0366009
        38250     0.0366981
        38500     0.0367917
        38750     0.0368819
        39000     0.0369687
        39250     0.0370523
        39500     0.0371328
        39750     0.0372103
        40000     0.0372849
        40250     0.0373567
        40500     0.0374259
        40750     0.0374925
        41000     0.0375566
        41250     0.0376184
        41500     0.0376778
        41750     0.0377351
        42000     0.0377902
        42250     0.0378433
        42500     0.0378944
        42750     0.0379436
        43000      0.037991
        43250     0.0380367
        43500     0.0380807
        43750     0.0381231
        44000     0.0381639
        44250     0.0382032
        44500     0.0382412
        44750     0.0382777
        45000     0.0383129
        45250     0.0383468
        45500     0.0383796
        45750     0.0384111
        46000     0.0384415
        46250     0.0384709
        46500     0.0384991
        46750     0.0385264
        47000     0.0385528
        47250     0.0385782
        47500     0.0386027
        47750     0.0386263
        48000     0.0386492
        48250     0.0386712
        48500     0.0386925
        48750      0.038713
        49000     0.0387329
        49250     0.0387521
        49500     0.0387706
        49750     0.0387885
        50000     0.0388058
        50250     0.0388225
        50500     0.0388387
        50750     0.0388543
        51000     0.0388694
        51250      0.038884
        51500     0.0388982
        51750     0.0389118
        52000     0.0389251
        52250     0.0389379
        52500     0.0389503
        52750     0.0389623
        53000     0.0389739
        53250     0.0389852
        53500     0.0389961
        53750     0.0390066
        54000     0.0390169
        54250     0.0390268
        54500     0.0390364
        54750     0.0390457
        55000     0.0390548
        55250     0.0390635
        55500      0.039072
        55750     0.0390802
        56000     0.0390882
        56250      0.039096
        56500     0.0391035
        56750     0.0391108
        57000     0.0391179
        57250     0.0391248
        57500     0.0391315
        57750      0.039138
        58000     0.0391443
        58250     0.0391505
        58500     0.0391564
        58750     0.0391622
        59000     0.0391678
        59250     0.0391733
        59500     0.0391786
        59750     0.0391838
        60000     0.0391888
        60250     0.0391937
        60500     0.0391985
        60750     0.0392031
        61000     0.0392077
        61250      0.039212
        61500     0.0392163
        61750     0.0392205
        62000     0.0392245
        62250     0.0392285
        62500     0.0392323
        62750     0.0392361
        63000     0.0392397
        63250     0.0392433
        63500     0.0392467
        63750     0.0392501
        64000     0.0392534
        64250     0.0392566
        64500     0.0392598
        64750     0.0392628
        65000     0.0392658
        65250     0.0392687
        65500     0.0392715
        65750     0.0392743
        66000      0.039277
        66250     0.0392796
        66500     0.0392822
        66750     0.0392847
        67000     0.0392872
        67250     0.0392896
        67500     0.0392919
        67750     0.0392942
        68000     0.0392964
        68250     0.0392986
        68500     0.0393007
        68750     0.0393028
        69000     0.0393048
        69250     0.0393068
        69500     0.0393088
        69750     0.0393107
        70000     0.0393125
        70250     0.0393143
        70500     0.0393161
        70750     0.0393179
        71000     0.0393196
        71250     0.0393212
        71500     0.0393228
        71750     0.0393244
        72000      0.039326
        72250     0.0393275
        72500      0.039329
        72750     0.0393305
        73000     0.0393319
        73250     0.0393333
        73500     0.0393347
        73750      0.039336
        74000     0.0393373
        74250     0.0393386
        74500     0.0393399
        74750     0.0393411
        75000     0.0393423
        75250     0.0393435
        75500     0.0393447
        75750     0.0393458
        76000      0.039347
        76250     0.0393481
        76500     0.0393491
        76750     0.0393502
        77000     0.0393512
        77250     0.0393522
        77500     0.0393532
        77750     0.0393542
        78000     0.0393552
        78250     0.0393561
        78500      0.039357
        78750     0.0393579
        79000     0.0393588
        79250     0.0393597
        79500     0.0393605
        79750     0.0393614
        80000     0.0393622
        80250      0.039363
        80500     0.0393638
        80750     0.0393646
        81000     0.0393653
        81250     0.0393661
        81500     0.0393668
        81750     0.0393675
        82000     0.0393682
        82250     0.0393689
        82500     0.0393696
        82750     0.0393703
        83000      0.039371
        83250     0.0393716
        83500     0.0393723
        83750     0.0393729
        84000     0.0393735
        84250     0.0393741
        84500     0.0393747
        84750     0.0393753
        85000     0.0393759
        85250     0.0393764
        85500      0.039377
        85750     0.0393775
        86000     0.0393781
        86250     0.0393786
        86500     0.0393791
        86750     0.0393796
        87000     0.0393801
        87250     0.0393806
        87500     0.0393811
        87750     0.0393816
        88000     0.0393821
        88250     0.0393825
        88500      0.039383
        88750     0.0393834
        89000     0.0393839
        89250     0.0393843
        89500     0.0393847
        89750     0.0393852
        90000     0.0393856
        90250      0.039386
        90500     0.0393864
        90750     0.0393868
        91000     0.0393872
        91250     0.0393876
        91500     0.0393879
        91750     0.0393883
        92000     0.0393887
        92250      0.039389
        92500     0.0393894
        92750     0.0393897
        93000     0.0393901
        93250     0.0393904
        93500     0.0393908
        93750     0.0393911
        94000     0.0393914
        94250     0.0393917
        94500     0.0393921
        94750     0.0393924
        95000     0.0393927
        95250      0.039393
        95500     0.0393933
        95750     0.0393936
        96000     0.0393939
        96250     0.0393941
        96500     0.0393944
        96750     0.0393947
        97000      0.039395
        97250     0.0393952
        97500     0.0393955
        97750     0.0393958
        98000      0.039396
        98250     0.0393963
        98500     0.0393965
        98750     0.0393968
        99000      0.039397
        99250     0.0393973
        99500     0.0393975
        99750     0.0393977
       100000      0.039398
