# Probe 0 (0.05 0.05 0.005)
#       Probe             0
#        Time
         0.01   1.62105e-09
         0.02   2.75785e-08
         0.03   1.45139e-07
         0.04   4.70122e-07
         0.05   1.17541e-06
         0.06   2.48465e-06
         0.07   4.67376e-06
         0.08   8.07089e-06
         0.09   1.30562e-05
          0.1   2.00615e-05
         0.11     2.957e-05
         0.12   4.21154e-05
         0.13   5.82816e-05
         0.14    7.8701e-05
         0.15   0.000104054
         0.16   0.000135065
         0.17   0.000172505
         0.18   0.000217184
         0.19   0.000269951
          0.2   0.000331688
         0.21    0.00040331
         0.22   0.000485755
         0.23   0.000579983
         0.24   0.000686966
         0.25   0.000807686
         0.26    0.00094312
         0.27    0.00109424
         0.28      0.001262
         0.29    0.00144732
          0.3     0.0016511
         0.31    0.00187417
         0.32    0.00211731
         0.33    0.00238124
         0.34    0.00266657
         0.35    0.00297386
         0.36    0.00330352
         0.37    0.00365588
         0.38    0.00403113
         0.39    0.00442934
          0.4    0.00485042
         0.41    0.00529415
         0.42    0.00576017
         0.43    0.00624794
         0.44    0.00675678
         0.45    0.00728588
         0.46    0.00783425
         0.47    0.00840078
         0.48    0.00898421
         0.49    0.00958318
          0.5     0.0101962
         0.51     0.0108217
         0.52      0.011458
         0.53     0.0121034
         0.54     0.0127561
         0.55     0.0134143
         0.56     0.0140762
         0.57     0.0147401
         0.58      0.015404
         0.59     0.0160664
          0.6     0.0167255
         0.61     0.0173797
         0.62     0.0180275
         0.63     0.0186674
         0.64     0.0192982
         0.65     0.0199187
         0.66     0.0205277
         0.67     0.0211243
         0.68     0.0217076
         0.69     0.0222769
          0.7     0.0228315
         0.71     0.0233711
         0.72     0.0238951
         0.73     0.0244033
         0.74     0.0248956
         0.75     0.0253718
         0.76     0.0258318
         0.77     0.0262758
         0.78      0.026704
         0.79     0.0271164
          0.8     0.0275133
         0.81     0.0278951
         0.82      0.028262
         0.83     0.0286144
         0.84     0.0289528
         0.85     0.0292774
         0.86     0.0295888
         0.87     0.0298874
         0.88     0.0301736
         0.89     0.0304479
          0.9     0.0307108
         0.91     0.0309626
         0.92     0.0312038
         0.93     0.0314349
         0.94     0.0316562
         0.95     0.0318683
         0.96     0.0320714
         0.97     0.0322661
         0.98     0.0324526
         0.99     0.0326314
            1     0.0328027
         1.01      0.032967
         1.02     0.0331246
         1.03     0.0332758
         1.04     0.0334208
         1.05       0.03356
         1.06     0.0336936
         1.07      0.033822
         1.08     0.0339453
         1.09     0.0340637
          1.1     0.0341776
         1.11     0.0342872
         1.12     0.0343925
         1.13     0.0344939
         1.14     0.0345916
         1.15     0.0346856
         1.16     0.0347761
         1.17     0.0348634
         1.18     0.0349475
         1.19     0.0350287
          1.2      0.035107
         1.21     0.0351826
         1.22     0.0352555
         1.23      0.035326
         1.24     0.0353941
         1.25     0.0354599
         1.26     0.0355236
         1.27     0.0355851
         1.28     0.0356447
         1.29     0.0357024
          1.3     0.0357582
         1.31     0.0358123
         1.32     0.0358647
         1.33     0.0359155
         1.34     0.0359648
         1.35     0.0360126
         1.36     0.0360589
         1.37      0.036104
         1.38     0.0361477
         1.39     0.0361901
          1.4     0.0362313
         1.41     0.0362714
         1.42     0.0363104
         1.43     0.0363483
         1.44     0.0363851
         1.45      0.036421
         1.46     0.0364559
         1.47     0.0364899
         1.48      0.036523
         1.49     0.0365553
          1.5     0.0365867
         1.51     0.0366173
         1.52     0.0366472
         1.53     0.0366763
         1.54     0.0367047
         1.55     0.0367324
         1.56     0.0367594
         1.57     0.0367859
         1.58     0.0368116
         1.59     0.0368368
          1.6     0.0368614
         1.61     0.0368855
         1.62     0.0369089
         1.63     0.0369319
         1.64     0.0369544
         1.65     0.0369763
         1.66     0.0369978
         1.67     0.0370188
         1.68     0.0370394
         1.69     0.0370595
          1.7     0.0370793
         1.71     0.0370986
         1.72     0.0371175
         1.73      0.037136
         1.74     0.0371542
         1.75     0.0371719
         1.76     0.0371894
         1.77     0.0372065
         1.78     0.0372232
         1.79     0.0372397
          1.8     0.0372558
         1.81     0.0372716
         1.82     0.0372871
         1.83     0.0373023
         1.84     0.0373173
         1.85      0.037332
         1.86     0.0373464
         1.87     0.0373605
         1.88     0.0373744
         1.89     0.0373881
          1.9     0.0374015
         1.91     0.0374147
         1.92     0.0374276
         1.93     0.0374403
         1.94     0.0374529
         1.95     0.0374652
         1.96     0.0374773
         1.97     0.0374892
         1.98     0.0375009
         1.99     0.0375124
            2     0.0375237
         2.01     0.0375349
         2.02     0.0375458
         2.03     0.0375566
         2.04     0.0375672
         2.05     0.0375777
         2.06      0.037588
         2.07     0.0375981
         2.08     0.0376081
         2.09      0.037618
          2.1     0.0376277
         2.11     0.0376372
         2.12     0.0376466
         2.13     0.0376559
         2.14      0.037665
         2.15      0.037674
         2.16     0.0376829
         2.17     0.0376917
         2.18     0.0377003
         2.19     0.0377088
          2.2     0.0377172
         2.21     0.0377254
         2.22     0.0377336
         2.23     0.0377416
         2.24     0.0377496
         2.25     0.0377574
         2.26     0.0377651
         2.27     0.0377728
         2.28     0.0377803
         2.29     0.0377877
          2.3     0.0377951
         2.31     0.0378023
         2.32     0.0378094
         2.33     0.0378165
         2.34     0.0378235
         2.35     0.0378303
         2.36     0.0378371
         2.37     0.0378438
         2.38     0.0378505
         2.39      0.037857
          2.4     0.0378635
         2.41     0.0378699
         2.42     0.0378762
         2.43     0.0378824
         2.44     0.0378886
         2.45     0.0378947
         2.46     0.0379007
         2.47     0.0379066
         2.48     0.0379125
         2.49     0.0379183
          2.5     0.0379241
         2.51     0.0379297
         2.52     0.0379354
         2.53     0.0379409
         2.54     0.0379464
         2.55     0.0379518
         2.56     0.0379572
         2.57     0.0379625
         2.58     0.0379678
         2.59      0.037973
          2.6     0.0379781
         2.61     0.0379832
         2.62     0.0379882
         2.63     0.0379932
         2.64     0.0379982
         2.65      0.038003
         2.66     0.0380079
         2.67     0.0380126
         2.68     0.0380174
         2.69      0.038022
          2.7     0.0380267
         2.71     0.0380313
         2.72     0.0380358
         2.73     0.0380403
         2.74     0.0380447
         2.75     0.0380492
         2.76     0.0380535
         2.77     0.0380578
         2.78     0.0380621
         2.79     0.0380664
          2.8     0.0380706
         2.81     0.0380747
         2.82     0.0380788
         2.83     0.0380829
         2.84     0.0380869
         2.85     0.0380909
         2.86     0.0380949
         2.87     0.0380988
         2.88     0.0381027
         2.89     0.0381066
          2.9     0.0381104
         2.91     0.0381142
         2.92     0.0381179
         2.93     0.0381217
         2.94     0.0381254
         2.95      0.038129
         2.96     0.0381326
         2.97     0.0381362
         2.98     0.0381398
         2.99     0.0381433
            3     0.0381468
         3.01     0.0381503
         3.02     0.0381537
         3.03     0.0381571
         3.04     0.0381605
         3.05     0.0381638
         3.06     0.0381671
         3.07     0.0381704
         3.08     0.0381737
         3.09     0.0381769
          3.1     0.0381802
         3.11     0.0381833
         3.12     0.0381865
         3.13     0.0381896
         3.14     0.0381927
         3.15     0.0381958
         3.16     0.0381989
         3.17     0.0382019
         3.18     0.0382049
         3.19     0.0382079
          3.2     0.0382109
         3.21     0.0382138
         3.22     0.0382167
         3.23     0.0382196
         3.24     0.0382225
         3.25     0.0382253
         3.26     0.0382282
         3.27      0.038231
         3.28     0.0382338
         3.29     0.0382365
          3.3     0.0382393
         3.31      0.038242
         3.32     0.0382447
         3.33     0.0382474
         3.34       0.03825
         3.35     0.0382527
         3.36     0.0382553
         3.37     0.0382579
         3.38     0.0382605
         3.39      0.038263
          3.4     0.0382656
         3.41     0.0382681
         3.42     0.0382706
         3.43     0.0382731
         3.44     0.0382756
         3.45      0.038278
         3.46     0.0382805
         3.47     0.0382829
         3.48     0.0382853
         3.49     0.0382877
          3.5     0.0382901
         3.51     0.0382924
         3.52     0.0382948
         3.53     0.0382971
         3.54     0.0382994
         3.55     0.0383017
         3.56      0.038304
         3.57     0.0383062
         3.58     0.0383085
         3.59     0.0383107
          3.6     0.0383129
         3.61     0.0383151
         3.62     0.0383173
         3.63     0.0383195
         3.64     0.0383216
         3.65     0.0383238
         3.66     0.0383259
         3.67      0.038328
         3.68     0.0383301
         3.69     0.0383322
          3.7     0.0383343
         3.71     0.0383363
         3.72     0.0383384
         3.73     0.0383404
         3.74     0.0383424
         3.75     0.0383444
         3.76     0.0383464
         3.77     0.0383484
         3.78     0.0383504
         3.79     0.0383524
          3.8     0.0383543
         3.81     0.0383562
         3.82     0.0383582
         3.83     0.0383601
         3.84      0.038362
         3.85     0.0383639
         3.86     0.0383657
         3.87     0.0383676
         3.88     0.0383695
         3.89     0.0383713
          3.9     0.0383731
         3.91      0.038375
         3.92     0.0383768
         3.93     0.0383786
         3.94     0.0383804
         3.95     0.0383821
         3.96     0.0383839
         3.97     0.0383857
         3.98     0.0383874
         3.99     0.0383892
            4     0.0383909
         4.01     0.0383926
         4.02     0.0383943
         4.03      0.038396
         4.04     0.0383977
         4.05     0.0383994
         4.06     0.0384011
         4.07     0.0384027
         4.08     0.0384044
         4.09      0.038406
          4.1     0.0384076
         4.11     0.0384093
         4.12     0.0384109
         4.13     0.0384125
         4.14     0.0384141
         4.15     0.0384157
         4.16     0.0384172
         4.17     0.0384188
         4.18     0.0384204
         4.19     0.0384219
          4.2     0.0384235
         4.21      0.038425
         4.22     0.0384265
         4.23     0.0384281
         4.24     0.0384296
         4.25     0.0384311
         4.26     0.0384326
         4.27     0.0384341
         4.28     0.0384356
         4.29      0.038437
          4.3     0.0384385
         4.31       0.03844
         4.32     0.0384414
         4.33     0.0384428
         4.34     0.0384443
         4.35     0.0384457
         4.36     0.0384471
         4.37     0.0384485
         4.38       0.03845
         4.39     0.0384514
          4.4     0.0384527
         4.41     0.0384541
         4.42     0.0384555
         4.43     0.0384569
         4.44     0.0384582
         4.45     0.0384596
         4.46      0.038461
         4.47     0.0384623
         4.48     0.0384636
         4.49      0.038465
          4.5     0.0384663
         4.51     0.0384676
         4.52     0.0384689
         4.53     0.0384702
         4.54     0.0384715
         4.55     0.0384728
         4.56     0.0384741
         4.57     0.0384754
         4.58     0.0384767
         4.59     0.0384779
          4.6     0.0384792
         4.61     0.0384804
         4.62     0.0384817
         4.63     0.0384829
         4.64     0.0384842
         4.65     0.0384854
         4.66     0.0384866
         4.67     0.0384879
         4.68     0.0384891
         4.69     0.0384903
          4.7     0.0384915
         4.71     0.0384927
         4.72     0.0384939
         4.73     0.0384951
         4.74     0.0384962
         4.75     0.0384974
         4.76     0.0384986
         4.77     0.0384998
         4.78     0.0385009
         4.79     0.0385021
          4.8     0.0385032
         4.81     0.0385044
         4.82     0.0385055
         4.83     0.0385066
         4.84     0.0385078
         4.85     0.0385089
         4.86       0.03851
         4.87     0.0385111
         4.88     0.0385122
         4.89     0.0385133
          4.9     0.0385144
         4.91     0.0385155
         4.92     0.0385166
         4.93     0.0385177
         4.94     0.0385188
         4.95     0.0385199
         4.96     0.0385209
         4.97      0.038522
         4.98     0.0385231
         4.99     0.0385241
            5     0.0385252
         5.01     0.0385262
         5.02     0.0385273
         5.03     0.0385283
         5.04     0.0385293
         5.05     0.0385304
         5.06     0.0385314
         5.07     0.0385324
         5.08     0.0385334
         5.09     0.0385345
          5.1     0.0385355
         5.11     0.0385365
         5.12     0.0385375
         5.13     0.0385385
         5.14     0.0385395
         5.15     0.0385405
         5.16     0.0385414
         5.17     0.0385424
         5.18     0.0385434
         5.19     0.0385444
          5.2     0.0385453
         5.21     0.0385463
         5.22     0.0385473
         5.23     0.0385482
         5.24     0.0385492
         5.25     0.0385501
         5.26     0.0385511
         5.27      0.038552
         5.28      0.038553
         5.29     0.0385539
          5.3     0.0385548
         5.31     0.0385558
         5.32     0.0385567
         5.33     0.0385576
         5.34     0.0385585
         5.35     0.0385594
         5.36     0.0385603
         5.37     0.0385612
         5.38     0.0385621
         5.39      0.038563
          5.4     0.0385639
         5.41     0.0385648
         5.42     0.0385657
         5.43     0.0385666
         5.44     0.0385675
         5.45     0.0385684
         5.46     0.0385692
         5.47     0.0385701
         5.48      0.038571
         5.49     0.0385718
          5.5     0.0385727
         5.51     0.0385736
         5.52     0.0385744
         5.53     0.0385753
         5.54     0.0385761
         5.55      0.038577
         5.56     0.0385778
         5.57     0.0385786
         5.58     0.0385795
         5.59     0.0385803
          5.6     0.0385811
         5.61      0.038582
         5.62     0.0385828
         5.63     0.0385836
         5.64     0.0385844
         5.65     0.0385852
         5.66     0.0385861
         5.67     0.0385869
         5.68     0.0385877
         5.69     0.0385885
          5.7     0.0385893
         5.71     0.0385901
         5.72     0.0385909
         5.73     0.0385917
         5.74     0.0385925
         5.75     0.0385932
         5.76      0.038594
         5.77     0.0385948
         5.78     0.0385956
         5.79     0.0385964
          5.8     0.0385971
         5.81     0.0385979
         5.82     0.0385987
         5.83     0.0385994
         5.84     0.0386002
         5.85      0.038601
         5.86     0.0386017
         5.87     0.0386025
         5.88     0.0386032
         5.89      0.038604
          5.9     0.0386047
         5.91     0.0386055
         5.92     0.0386062
         5.93     0.0386069
         5.94     0.0386077
         5.95     0.0386084
         5.96     0.0386091
         5.97     0.0386099
         5.98     0.0386106
         5.99     0.0386113
            6      0.038612
         6.01     0.0386127
         6.02     0.0386135
         6.03     0.0386142
         6.04     0.0386149
         6.05     0.0386156
         6.06     0.0386163
         6.07      0.038617
         6.08     0.0386177
         6.09     0.0386184
          6.1     0.0386191
         6.11     0.0386198
         6.12     0.0386205
         6.13     0.0386212
         6.14     0.0386219
         6.15     0.0386226
         6.16     0.0386232
         6.17     0.0386239
         6.18     0.0386246
         6.19     0.0386253
          6.2      0.038626
         6.21     0.0386266
         6.22     0.0386273
         6.23      0.038628
         6.24     0.0386286
         6.25     0.0386293
         6.26       0.03863
         6.27     0.0386306
         6.28     0.0386313
         6.29     0.0386319
          6.3     0.0386326
         6.31     0.0386332
         6.32     0.0386339
         6.33     0.0386345
         6.34     0.0386352
         6.35     0.0386358
         6.36     0.0386365
         6.37     0.0386371
         6.38     0.0386377
         6.39     0.0386384
          6.4      0.038639
         6.41     0.0386396
         6.42     0.0386403
         6.43     0.0386409
         6.44     0.0386415
         6.45     0.0386421
         6.46     0.0386428
         6.47     0.0386434
         6.48      0.038644
         6.49     0.0386446
          6.5     0.0386452
         6.51     0.0386458
         6.52     0.0386465
         6.53     0.0386471
         6.54     0.0386477
         6.55     0.0386483
         6.56     0.0386489
         6.57     0.0386495
         6.58     0.0386501
         6.59     0.0386507
          6.6     0.0386513
         6.61     0.0386519
         6.62     0.0386525
         6.63     0.0386531
         6.64     0.0386536
         6.65     0.0386542
         6.66     0.0386548
         6.67     0.0386554
         6.68      0.038656
         6.69     0.0386566
          6.7     0.0386571
         6.71     0.0386577
         6.72     0.0386583
         6.73     0.0386589
         6.74     0.0386594
         6.75       0.03866
         6.76     0.0386606
         6.77     0.0386611
         6.78     0.0386617
         6.79     0.0386623
          6.8     0.0386628
         6.81     0.0386634
         6.82     0.0386639
         6.83     0.0386645
         6.84     0.0386651
         6.85     0.0386656
         6.86     0.0386662
         6.87     0.0386667
         6.88     0.0386673
         6.89     0.0386678
          6.9     0.0386684
         6.91     0.0386689
         6.92     0.0386694
         6.93       0.03867
         6.94     0.0386705
         6.95     0.0386711
         6.96     0.0386716
         6.97     0.0386721
         6.98     0.0386727
         6.99     0.0386732
            7     0.0386737
         7.01     0.0386743
         7.02     0.0386748
         7.03     0.0386753
         7.04     0.0386758
         7.05     0.0386764
         7.06     0.0386769
         7.07     0.0386774
         7.08     0.0386779
         7.09     0.0386784
          7.1      0.038679
         7.11     0.0386795
         7.12       0.03868
         7.13     0.0386805
         7.14      0.038681
         7.15     0.0386815
         7.16      0.038682
         7.17     0.0386825
         7.18      0.038683
         7.19     0.0386836
          7.2     0.0386841
         7.21     0.0386846
         7.22     0.0386851
         7.23     0.0386856
         7.24     0.0386861
         7.25     0.0386865
         7.26      0.038687
         7.27     0.0386875
         7.28      0.038688
         7.29     0.0386885
          7.3      0.038689
         7.31     0.0386895
         7.32       0.03869
         7.33     0.0386905
         7.34      0.038691
         7.35     0.0386914
         7.36     0.0386919
         7.37     0.0386924
         7.38     0.0386929
         7.39     0.0386934
          7.4     0.0386938
         7.41     0.0386943
         7.42     0.0386948
         7.43     0.0386953
         7.44     0.0386957
         7.45     0.0386962
         7.46     0.0386967
         7.47     0.0386971
         7.48     0.0386976
         7.49     0.0386981
          7.5     0.0386985
         7.51      0.038699
         7.52     0.0386995
         7.53     0.0386999
         7.54     0.0387004
         7.55     0.0387008
         7.56     0.0387013
         7.57     0.0387018
         7.58     0.0387022
         7.59     0.0387027
          7.6     0.0387031
         7.61     0.0387036
         7.62      0.038704
         7.63     0.0387045
         7.64     0.0387049
         7.65     0.0387054
         7.66     0.0387058
         7.67     0.0387063
         7.68     0.0387067
         7.69     0.0387071
          7.7     0.0387076
         7.71      0.038708
         7.72     0.0387085
         7.73     0.0387089
         7.74     0.0387093
         7.75     0.0387098
         7.76     0.0387102
         7.77     0.0387106
         7.78     0.0387111
         7.79     0.0387115
          7.8     0.0387119
         7.81     0.0387124
         7.82     0.0387128
         7.83     0.0387132
         7.84     0.0387137
         7.85     0.0387141
         7.86     0.0387145
         7.87     0.0387149
         7.88     0.0387154
         7.89     0.0387158
          7.9     0.0387162
         7.91     0.0387166
         7.92      0.038717
         7.93     0.0387175
         7.94     0.0387179
         7.95     0.0387183
         7.96     0.0387187
         7.97     0.0387191
         7.98     0.0387195
         7.99     0.0387199
            8     0.0387204
         8.01     0.0387208
         8.02     0.0387212
         8.03     0.0387216
         8.04      0.038722
         8.05     0.0387224
         8.06     0.0387228
         8.07     0.0387232
         8.08     0.0387236
         8.09      0.038724
          8.1     0.0387244
         8.11     0.0387248
         8.12     0.0387252
         8.13     0.0387256
         8.14      0.038726
         8.15     0.0387264
         8.16     0.0387268
         8.17     0.0387272
         8.18     0.0387276
         8.19      0.038728
          8.2     0.0387284
         8.21     0.0387288
         8.22     0.0387292
         8.23     0.0387295
         8.24     0.0387299
         8.25     0.0387303
         8.26     0.0387307
         8.27     0.0387311
         8.28     0.0387315
         8.29     0.0387319
          8.3     0.0387323
         8.31     0.0387326
         8.32      0.038733
         8.33     0.0387334
         8.34     0.0387338
         8.35     0.0387342
         8.36     0.0387345
         8.37     0.0387349
         8.38     0.0387353
         8.39     0.0387357
          8.4      0.038736
         8.41     0.0387364
         8.42     0.0387368
         8.43     0.0387372
         8.44     0.0387375
         8.45     0.0387379
         8.46     0.0387383
         8.47     0.0387386
         8.48      0.038739
         8.49     0.0387394
          8.5     0.0387397
         8.51     0.0387401
         8.52     0.0387405
         8.53     0.0387408
         8.54     0.0387412
         8.55     0.0387416
         8.56     0.0387419
         8.57     0.0387423
         8.58     0.0387427
         8.59      0.038743
          8.6     0.0387434
         8.61     0.0387437
         8.62     0.0387441
         8.63     0.0387444
         8.64     0.0387448
         8.65     0.0387452
         8.66     0.0387455
         8.67     0.0387459
         8.68     0.0387462
         8.69     0.0387466
          8.7     0.0387469
         8.71     0.0387473
         8.72     0.0387476
         8.73      0.038748
         8.74     0.0387483
         8.75     0.0387487
         8.76      0.038749
         8.77     0.0387494
         8.78     0.0387497
         8.79       0.03875
          8.8     0.0387504
         8.81     0.0387507
         8.82     0.0387511
         8.83     0.0387514
         8.84     0.0387518
         8.85     0.0387521
         8.86     0.0387524
         8.87     0.0387528
         8.88     0.0387531
         8.89     0.0387535
          8.9     0.0387538
         8.91     0.0387541
         8.92     0.0387545
         8.93     0.0387548
         8.94     0.0387551
         8.95     0.0387555
         8.96     0.0387558
         8.97     0.0387561
         8.98     0.0387565
         8.99     0.0387568
            9     0.0387571
         9.01     0.0387575
         9.02     0.0387578
         9.03     0.0387581
         9.04     0.0387584
         9.05     0.0387588
         9.06     0.0387591
         9.07     0.0387594
         9.08     0.0387597
         9.09     0.0387601
          9.1     0.0387604
         9.11     0.0387607
         9.12      0.038761
         9.13     0.0387614
         9.14     0.0387617
         9.15      0.038762
         9.16     0.0387623
         9.17     0.0387626
         9.18      0.038763
         9.19     0.0387633
          9.2     0.0387636
         9.21     0.0387639
         9.22     0.0387642
         9.23     0.0387645
         9.24     0.0387648
         9.25     0.0387652
         9.26     0.0387655
         9.27     0.0387658
         9.28     0.0387661
         9.29     0.0387664
          9.3     0.0387667
         9.31      0.038767
         9.32     0.0387673
         9.33     0.0387677
         9.34      0.038768
         9.35     0.0387683
         9.36     0.0387686
         9.37     0.0387689
         9.38     0.0387692
         9.39     0.0387695
          9.4     0.0387698
         9.41     0.0387701
         9.42     0.0387704
         9.43     0.0387707
         9.44      0.038771
         9.45     0.0387713
         9.46     0.0387716
         9.47     0.0387719
         9.48     0.0387722
         9.49     0.0387725
          9.5     0.0387728
         9.51     0.0387731
         9.52     0.0387734
         9.53     0.0387737
         9.54      0.038774
         9.55     0.0387743
         9.56     0.0387746
         9.57     0.0387749
         9.58     0.0387752
         9.59     0.0387755
          9.6     0.0387758
         9.61     0.0387761
         9.62     0.0387764
         9.63     0.0387766
         9.64     0.0387769
         9.65     0.0387772
         9.66     0.0387775
         9.67     0.0387778
         9.68     0.0387781
         9.69     0.0387784
          9.7     0.0387787
         9.71      0.038779
         9.72     0.0387792
         9.73     0.0387795
         9.74     0.0387798
         9.75     0.0387801
         9.76     0.0387804
         9.77     0.0387807
         9.78      0.038781
         9.79     0.0387812
          9.8     0.0387815
         9.81     0.0387818
         9.82     0.0387821
         9.83     0.0387824
         9.84     0.0387826
         9.85     0.0387829
         9.86     0.0387832
         9.87     0.0387835
         9.88     0.0387838
         9.89      0.038784
          9.9     0.0387843
         9.91     0.0387846
         9.92     0.0387849
         9.93     0.0387852
         9.94     0.0387854
         9.95     0.0387857
         9.96      0.038786
         9.97     0.0387862
         9.98     0.0387865
         9.99     0.0387868
           10     0.0387871
        10.01     0.0387873
        10.02     0.0387876
        10.03     0.0387879
        10.04     0.0387882
        10.05     0.0387884
        10.06     0.0387887
        10.07      0.038789
        10.08     0.0387892
        10.09     0.0387895
         10.1     0.0387898
        10.11       0.03879
        10.12     0.0387903
        10.13     0.0387906
        10.14     0.0387908
        10.15     0.0387911
        10.16     0.0387914
        10.17     0.0387916
        10.18     0.0387919
        10.19     0.0387922
         10.2     0.0387924
        10.21     0.0387927
        10.22     0.0387929
        10.23     0.0387932
        10.24     0.0387935
        10.25     0.0387937
        10.26      0.038794
        10.27     0.0387942
        10.28     0.0387945
        10.29     0.0387948
         10.3      0.038795
        10.31     0.0387953
        10.32     0.0387955
        10.33     0.0387958
        10.34      0.038796
        10.35     0.0387963
        10.36     0.0387966
        10.37     0.0387968
        10.38     0.0387971
        10.39     0.0387973
         10.4     0.0387976
        10.41     0.0387978
        10.42     0.0387981
        10.43     0.0387983
        10.44     0.0387986
        10.45     0.0387988
        10.46     0.0387991
        10.47     0.0387993
        10.48     0.0387996
        10.49     0.0387998
         10.5     0.0388001
        10.51     0.0388003
        10.52     0.0388006
        10.53     0.0388008
        10.54     0.0388011
        10.55     0.0388013
        10.56     0.0388016
        10.57     0.0388018
        10.58     0.0388021
        10.59     0.0388023
         10.6     0.0388026
        10.61     0.0388028
        10.62     0.0388031
        10.63     0.0388033
        10.64     0.0388035
        10.65     0.0388038
        10.66      0.038804
        10.67     0.0388043
        10.68     0.0388045