# Probe 0 (0.05 0.05 0.005)
#       Probe             0
#        Time
         0.01          0.04
         0.02          0.04
         0.03     0.0399998
         0.04     0.0399995
         0.05     0.0399988
         0.06     0.0399975
         0.07     0.0399953
         0.08     0.0399919
         0.09     0.0399869
          0.1     0.0399799
         0.11     0.0399704
         0.12     0.0399579
         0.13     0.0399417
         0.14     0.0399213
         0.15     0.0398959
         0.16     0.0398649
         0.17     0.0398275
         0.18     0.0397828
         0.19       0.03973
          0.2     0.0396683
         0.21     0.0395967
         0.22     0.0395142
         0.23       0.03942
         0.24      0.039313
         0.25     0.0391923
         0.26     0.0390569
         0.27     0.0389058
         0.28      0.038738
         0.29     0.0385527
          0.3     0.0383489
         0.31     0.0381258
         0.32     0.0378827
         0.33     0.0376188
         0.34     0.0373334
         0.35     0.0370261
         0.36     0.0366965
         0.37     0.0363441
         0.38     0.0359689
         0.39     0.0355707
          0.4     0.0351496
         0.41     0.0347058
         0.42     0.0342398
         0.43     0.0337521
         0.44     0.0332432
         0.45     0.0327141
         0.46     0.0321657
         0.47     0.0315992
         0.48     0.0310158
         0.49     0.0304168
          0.5     0.0298038
         0.51     0.0291783
         0.52      0.028542
         0.53     0.0278966
         0.54     0.0272439
         0.55     0.0265857
         0.56     0.0259238
         0.57     0.0252599
         0.58      0.024596
         0.59     0.0239336
          0.6     0.0232745
         0.61     0.0226203
         0.62     0.0219725
         0.63     0.0213326
         0.64     0.0207018
         0.65     0.0200813
         0.66     0.0194723
         0.67     0.0188757
         0.68     0.0182924
         0.69     0.0177231
          0.7     0.0171685
         0.71     0.0166289
         0.72     0.0161049
         0.73     0.0155966
         0.74     0.0151044
         0.75     0.0146282
         0.76     0.0141682
         0.77     0.0137242
         0.78      0.013296
         0.79     0.0128836
          0.8     0.0124867
         0.81     0.0121049
         0.82      0.011738
         0.83     0.0113856
         0.84     0.0110472
         0.85     0.0107226
         0.86     0.0104112
         0.87     0.0101126
         0.88    0.00982634
         0.89    0.00955204
          0.9    0.00928921
         0.91    0.00903741
         0.92    0.00879619
         0.93    0.00856511
         0.94    0.00834376
         0.95    0.00813171
         0.96    0.00792856
         0.97    0.00773391
         0.98    0.00754739
         0.99    0.00736862
            1    0.00719726
         1.01    0.00703296
         1.02    0.00687539
         1.03    0.00672424
         1.04     0.0065792
         1.05    0.00644001
         1.06    0.00630637
         1.07    0.00617803
         1.08    0.00605473
         1.09    0.00593625
          1.1    0.00582235
         1.11    0.00571281
         1.12    0.00560745
         1.13    0.00550605
         1.14    0.00540844
         1.15    0.00531443
         1.16    0.00522387
         1.17    0.00513659
         1.18    0.00505245
         1.19     0.0049713
          1.2      0.004893
         1.21    0.00481743
         1.22    0.00474447
         1.23    0.00467399
         1.24     0.0046059
         1.25    0.00454008
         1.26    0.00447643
         1.27    0.00441487
         1.28    0.00435529
         1.29    0.00429763
          1.3    0.00424179
         1.31     0.0041877
         1.32    0.00413528
         1.33    0.00408447
         1.34    0.00403521
         1.35    0.00398742
         1.36    0.00394105
         1.37    0.00389604
         1.38    0.00385234
         1.39    0.00380989
          1.4    0.00376865
         1.41    0.00372857
         1.42    0.00368961
         1.43    0.00365171
         1.44    0.00361485
         1.45    0.00357899
         1.46    0.00354408
         1.47    0.00351009
         1.48    0.00347699
         1.49    0.00344474
          1.5    0.00341332
         1.51    0.00338269
         1.52    0.00335283
         1.53    0.00332371
         1.54    0.00329531
         1.55    0.00326759
         1.56    0.00324054
         1.57    0.00321414
         1.58    0.00318836
         1.59    0.00316317
          1.6    0.00313857
         1.61    0.00311454
         1.62    0.00309104
         1.63    0.00306808
         1.64    0.00304562
         1.65    0.00302366
         1.66    0.00300217
         1.67    0.00298115
         1.68    0.00296058
         1.69    0.00294044
          1.7    0.00292073
         1.71    0.00290142
         1.72    0.00288251
         1.73    0.00286399
         1.74    0.00284584
         1.75    0.00282805
         1.76    0.00281062
         1.77    0.00279353
         1.78    0.00277677
         1.79    0.00276034
          1.8    0.00274422
         1.81     0.0027284
         1.82    0.00271288
         1.83    0.00269765
         1.84     0.0026827
         1.85    0.00266803
         1.86    0.00265362
         1.87    0.00263947
         1.88    0.00262557
         1.89    0.00261192
          1.9    0.00259851
         1.91    0.00258533
         1.92    0.00257238
         1.93    0.00255965
         1.94    0.00254713
         1.95    0.00253483
         1.96    0.00252273
         1.97    0.00251083
         1.98    0.00249913
         1.99    0.00248761
            2    0.00247629
         2.01    0.00246514
         2.02    0.00245417
         2.03    0.00244338
         2.04    0.00243275
         2.05    0.00242229
         2.06    0.00241199
         2.07    0.00240185
         2.08    0.00239186
         2.09    0.00238202
          2.1    0.00237233
         2.11    0.00236278
         2.12    0.00235337
         2.13     0.0023441
         2.14    0.00233497
         2.15    0.00232596
         2.16    0.00231709
         2.17    0.00230834
         2.18    0.00229971
         2.19    0.00229121
          2.2    0.00228282
         2.21    0.00227455
         2.22    0.00226639
         2.23    0.00225834
         2.24    0.00225041
         2.25    0.00224257
         2.26    0.00223485
         2.27    0.00222722
         2.28    0.00221969
         2.29    0.00221227
          2.3    0.00220494
         2.31     0.0021977
         2.32    0.00219055
         2.33     0.0021835
         2.34    0.00217654
         2.35    0.00216966
         2.36    0.00216287
         2.37    0.00215616
         2.38    0.00214953
         2.39    0.00214299
          2.4    0.00213652
         2.41    0.00213014
         2.42    0.00212383
         2.43    0.00211759
         2.44    0.00211143
         2.45    0.00210534
         2.46    0.00209932
         2.47    0.00209337
         2.48    0.00208749
         2.49    0.00208168
          2.5    0.00207593
         2.51    0.00207025
         2.52    0.00206464
         2.53    0.00205908
         2.54    0.00205359
         2.55    0.00204816
         2.56    0.00204279
         2.57    0.00203747
         2.58    0.00203222
         2.59    0.00202702
          2.6    0.00202187
         2.61    0.00201678
         2.62    0.00201175
         2.63    0.00200677
         2.64    0.00200184
         2.65    0.00199696
         2.66    0.00199213
         2.67    0.00198736
         2.68    0.00198263
         2.69    0.00197795
          2.7    0.00197332
         2.71    0.00196873
         2.72    0.00196419
         2.73    0.00195969
         2.74    0.00195524
         2.75    0.00195084
         2.76    0.00194647
         2.77    0.00194215
         2.78    0.00193787
         2.79    0.00193364
          2.8    0.00192944
         2.81    0.00192528
         2.82    0.00192117
         2.83    0.00191709
         2.84    0.00191305
         2.85    0.00190905
         2.86    0.00190508
         2.87    0.00190115
         2.88    0.00189726
         2.89     0.0018934
          2.9    0.00188958
         2.91     0.0018858
         2.92    0.00188204
         2.93    0.00187833
         2.94    0.00187464
         2.95    0.00187099
         2.96    0.00186737
         2.97    0.00186378
         2.98    0.00186022
         2.99    0.00185669
            3     0.0018532
         3.01    0.00184973
         3.02     0.0018463
         3.03    0.00184289
         3.04    0.00183951
         3.05    0.00183617
         3.06    0.00183284
         3.07    0.00182955
         3.08    0.00182629
         3.09    0.00182305
          3.1    0.00181984
         3.11    0.00181665
         3.12    0.00181349
         3.13    0.00181036
         3.14    0.00180725
         3.15    0.00180417
         3.16    0.00180111
         3.17    0.00179808
         3.18    0.00179507
         3.19    0.00179208
          3.2    0.00178912
         3.21    0.00178618
         3.22    0.00178327
         3.23    0.00178037
         3.24     0.0017775
         3.25    0.00177465
         3.26    0.00177183
         3.27    0.00176902
         3.28    0.00176624
         3.29    0.00176348
          3.3    0.00176074
         3.31    0.00175802
         3.32    0.00175531
         3.33    0.00175263
         3.34    0.00174997
         3.35    0.00174733
         3.36    0.00174471
         3.37    0.00174211
         3.38    0.00173953
         3.39    0.00173696
          3.4    0.00173442
         3.41    0.00173189
         3.42    0.00172938
         3.43    0.00172689
         3.44    0.00172441
         3.45    0.00172196
         3.46    0.00171952
         3.47     0.0017171
         3.48    0.00171469
         3.49     0.0017123
          3.5    0.00170993
         3.51    0.00170758
         3.52    0.00170524
         3.53    0.00170292
         3.54    0.00170061
         3.55    0.00169832
         3.56    0.00169604
         3.57    0.00169378
         3.58    0.00169154
         3.59    0.00168931
          3.6    0.00168709
         3.61    0.00168489
         3.62     0.0016827
         3.63    0.00168053
         3.64    0.00167838
         3.65    0.00167623
         3.66     0.0016741
         3.67    0.00167199
         3.68    0.00166989
         3.69     0.0016678
          3.7    0.00166572
         3.71    0.00166366
         3.72    0.00166161
         3.73    0.00165958
         3.74    0.00165756
         3.75    0.00165555
         3.76    0.00165355
         3.77    0.00165157
         3.78    0.00164959
         3.79    0.00164763
          3.8    0.00164569
         3.81    0.00164375
         3.82    0.00164183
         3.83    0.00163991
         3.84    0.00163801
         3.85    0.00163612
         3.86    0.00163425
         3.87    0.00163238
         3.88    0.00163053
         3.89    0.00162868
          3.9    0.00162685
         3.91    0.00162503
         3.92    0.00162322
         3.93    0.00162142
         3.94    0.00161963
         3.95    0.00161785
         3.96    0.00161608
         3.97    0.00161432
         3.98    0.00161257
         3.99    0.00161083
            4     0.0016091
         4.01    0.00160739
         4.02    0.00160568
         4.03    0.00160398
         4.04    0.00160229
         4.05    0.00160061
         4.06    0.00159894
         4.07    0.00159728
         4.08    0.00159563
         4.09    0.00159399
          4.1    0.00159235
         4.11    0.00159073
         4.12    0.00158911
         4.13    0.00158751
         4.14    0.00158591
         4.15    0.00158432
         4.16    0.00158274
         4.17    0.00158117
         4.18    0.00157961
         4.19    0.00157806
          4.2    0.00157651
         4.21    0.00157497
         4.22    0.00157344
         4.23    0.00157192
         4.24    0.00157041
         4.25     0.0015689
         4.26    0.00156741
         4.27    0.00156592
         4.28    0.00156444
         4.29    0.00156296
          4.3     0.0015615
         4.31    0.00156004
         4.32    0.00155859
         4.33    0.00155715
         4.34    0.00155571
         4.35    0.00155428
         4.36    0.00155286
         4.37    0.00155145
         4.38    0.00155004
         4.39    0.00154864
          4.4    0.00154725
         4.41    0.00154586
         4.42    0.00154449
         4.43    0.00154311
         4.44    0.00154175
         4.45    0.00154039
         4.46    0.00153904
         4.47     0.0015377
         4.48    0.00153636
         4.49    0.00153503
          4.5     0.0015337
         4.51    0.00153239
         4.52    0.00153107
         4.53    0.00152977
         4.54    0.00152847
         4.55    0.00152718
         4.56    0.00152589
         4.57    0.00152461
         4.58    0.00152334
         4.59    0.00152207
          4.6    0.00152081
         4.61    0.00151955
         4.62     0.0015183
         4.63    0.00151706
         4.64    0.00151582
         4.65    0.00151459
         4.66    0.00151336
         4.67    0.00151214
         4.68    0.00151093
         4.69    0.00150972
          4.7    0.00150851
         4.71    0.00150731
         4.72    0.00150612
         4.73    0.00150493
         4.74    0.00150375
         4.75    0.00150258
         4.76     0.0015014
         4.77    0.00150024
         4.78    0.00149908
         4.79    0.00149792
          4.8    0.00149677
         4.81    0.00149563
         4.82    0.00149449
         4.83    0.00149335
         4.84    0.00149222
         4.85     0.0014911
         4.86    0.00148998
         4.87    0.00148887
         4.88    0.00148776
         4.89    0.00148665
          4.9    0.00148555
         4.91    0.00148446
         4.92    0.00148337
         4.93    0.00148228
         4.94     0.0014812
         4.95    0.00148012
         4.96    0.00147905
         4.97    0.00147798
         4.98    0.00147692
         4.99    0.00147586
            5    0.00147481
         5.01    0.00147376
         5.02    0.00147272
         5.03    0.00147168
         5.04    0.00147064
         5.05    0.00146961
         5.06    0.00146858
         5.07    0.00146756
         5.08    0.00146654
         5.09    0.00146553
          5.1    0.00146452
         5.11    0.00146351
         5.12    0.00146251
         5.13    0.00146152
         5.14    0.00146052
         5.15    0.00145953
         5.16    0.00145855
         5.17    0.00145757
         5.18    0.00145659
         5.19    0.00145562
          5.2    0.00145465
         5.21    0.00145368
         5.22    0.00145272
         5.23    0.00145176
         5.24    0.00145081
         5.25    0.00144986
         5.26    0.00144891
         5.27    0.00144797
         5.28    0.00144703
         5.29     0.0014461
          5.3    0.00144517
         5.31    0.00144424
         5.32    0.00144332
         5.33     0.0014424
         5.34    0.00144148
         5.35    0.00144057
         5.36    0.00143966
         5.37    0.00143875
         5.38    0.00143785
         5.39    0.00143695
          5.4    0.00143606
         5.41    0.00143516
         5.42    0.00143428
         5.43    0.00143339
         5.44    0.00143251
         5.45    0.00143163
         5.46    0.00143076
         5.47    0.00142988
         5.48    0.00142902
         5.49    0.00142815
          5.5    0.00142729
         5.51    0.00142643
         5.52    0.00142558
         5.53    0.00142472
         5.54    0.00142388
         5.55    0.00142303
         5.56    0.00142219
         5.57    0.00142135
         5.58    0.00142051
         5.59    0.00141968
          5.6    0.00141885
         5.61    0.00141802
         5.62     0.0014172
         5.63    0.00141638
         5.64    0.00141556
         5.65    0.00141474
         5.66    0.00141393
         5.67    0.00141312
         5.68    0.00141231
         5.69    0.00141151
          5.7    0.00141071
         5.71    0.00140991
         5.72    0.00140912
         5.73    0.00140833
         5.74    0.00140754
         5.75    0.00140675
         5.76    0.00140597
         5.77    0.00140519
         5.78    0.00140441
         5.79    0.00140363
          5.8    0.00140286
         5.81    0.00140209
         5.82    0.00140132
         5.83    0.00140056
         5.84     0.0013998
         5.85    0.00139904
         5.86    0.00139828
         5.87    0.00139753
         5.88    0.00139678
         5.89    0.00139603
          5.9    0.00139528
         5.91    0.00139454
         5.92     0.0013938
         5.93    0.00139306
         5.94    0.00139233
         5.95    0.00139159
         5.96    0.00139086
         5.97    0.00139013
         5.98    0.00138941
         5.99    0.00138868
            6    0.00138796
         6.01    0.00138724
         6.02    0.00138653
         6.03    0.00138581
         6.04     0.0013851
         6.05    0.00138439
         6.06    0.00138369
         6.07    0.00138298
         6.08    0.00138228
         6.09    0.00138158
          6.1    0.00138089
         6.11    0.00138019
         6.12     0.0013795
         6.13    0.00137881
         6.14    0.00137812
         6.15    0.00137743
         6.16    0.00137675
         6.17    0.00137607
         6.18    0.00137539
         6.19    0.00137471
          6.2    0.00137404
         6.21    0.00137336
         6.22    0.00137269
         6.23    0.00137203
         6.24    0.00137136
         6.25     0.0013707
         6.26    0.00137003
         6.27    0.00136937
         6.28    0.00136872
         6.29    0.00136806
          6.3    0.00136741
         6.31    0.00136676
         6.32    0.00136611
         6.33    0.00136546
         6.34    0.00136481
         6.35    0.00136417
         6.36    0.00136353
         6.37    0.00136289
         6.38    0.00136225
         6.39    0.00136162
          6.4    0.00136098
         6.41    0.00136035
         6.42    0.00135972
         6.43     0.0013591
         6.44    0.00135847
         6.45    0.00135785
         6.46    0.00135722
         6.47    0.00135661
         6.48    0.00135599
         6.49    0.00135537
          6.5    0.00135476
         6.51    0.00135414
         6.52    0.00135353
         6.53    0.00135293
         6.54    0.00135232
         6.55    0.00135171
         6.56    0.00135111
         6.57    0.00135051
         6.58    0.00134991
         6.59    0.00134931
          6.6    0.00134872
         6.61    0.00134812
         6.62    0.00134753
         6.63    0.00134694
         6.64    0.00134635
         6.65    0.00134576
         6.66    0.00134518
         6.67     0.0013446
         6.68    0.00134401
         6.69    0.00134343
          6.7    0.00134286
         6.71    0.00134228
         6.72     0.0013417
         6.73    0.00134113
         6.74    0.00134056
         6.75    0.00133999
         6.76    0.00133942
         6.77    0.00133885
         6.78    0.00133829
         6.79    0.00133773
          6.8    0.00133716
         6.81     0.0013366
         6.82    0.00133604
         6.83    0.00133549
         6.84    0.00133493
         6.85    0.00133438
         6.86    0.00133383
         6.87    0.00133328
         6.88    0.00133273
         6.89    0.00133218
          6.9    0.00133163
         6.91    0.00133109
         6.92    0.00133055
         6.93       0.00133
         6.94    0.00132946
         6.95    0.00132893
         6.96    0.00132839
         6.97    0.00132785
         6.98    0.00132732
         6.99    0.00132679
            7    0.00132626
         7.01    0.00132573
         7.02     0.0013252
         7.03    0.00132467
         7.04    0.00132415
         7.05    0.00132362
         7.06     0.0013231
         7.07    0.00132258
         7.08    0.00132206
         7.09    0.00132154
          7.1    0.00132103
         7.11    0.00132051
         7.12       0.00132
         7.13    0.00131949
         7.14    0.00131898
         7.15    0.00131847
         7.16    0.00131796
         7.17    0.00131745
         7.18    0.00131695
         7.19    0.00131644
          7.2    0.00131594
         7.21    0.00131544
         7.22    0.00131494
         7.23    0.00131444
         7.24    0.00131394
         7.25    0.00131345
         7.26    0.00131295
         7.27    0.00131246
         7.28    0.00131197
         7.29    0.00131147
          7.3    0.00131099
         7.31     0.0013105
         7.32    0.00131001
         7.33    0.00130952
         7.34    0.00130904
         7.35    0.00130856
         7.36    0.00130808
         7.37    0.00130759
         7.38    0.00130712
         7.39    0.00130664
          7.4    0.00130616
         7.41    0.00130569
         7.42    0.00130521
         7.43    0.00130474
         7.44    0.00130427
         7.45    0.00130379
         7.46    0.00130333
         7.47    0.00130286
         7.48    0.00130239
         7.49    0.00130192
          7.5    0.00130146
         7.51      0.001301
         7.52    0.00130053
         7.53    0.00130007
         7.54    0.00129961
         7.55    0.00129915
         7.56     0.0012987
         7.57    0.00129824
         7.58    0.00129778
         7.59    0.00129733
          7.6    0.00129688
         7.61    0.00129642
         7.62    0.00129597
         7.63    0.00129552
         7.64    0.00129508
         7.65    0.00129463
         7.66    0.00129418
         7.67    0.00129374
         7.68    0.00129329
         7.69    0.00129285
          7.7    0.00129241
         7.71    0.00129197
         7.72    0.00129153
         7.73    0.00129109
         7.74    0.00129065
         7.75    0.00129021
         7.76    0.00128978
         7.77    0.00128934
         7.78    0.00128891
         7.79    0.00128848
          7.8    0.00128805
         7.81    0.00128762
         7.82    0.00128719
         7.83    0.00128676
         7.84    0.00128633
         7.85    0.00128591
         7.86    0.00128548
         7.87    0.00128506
         7.88    0.00128463
         7.89    0.00128421
          7.9    0.00128379
         7.91    0.00128337
         7.92    0.00128295
         7.93    0.00128254
         7.94    0.00128212
         7.95     0.0012817
         7.96    0.00128129
         7.97    0.00128087
         7.98    0.00128046
         7.99    0.00128005
            8    0.00127964
         8.01    0.00127923
         8.02    0.00127882
         8.03    0.00127841
         8.04      0.001278
         8.05     0.0012776
         8.06    0.00127719
         8.07    0.00127679
         8.08    0.00127638
         8.09    0.00127598
          8.1    0.00127558
         8.11    0.00127518
         8.12    0.00127478
         8.13    0.00127438
         8.14    0.00127398
         8.15    0.00127359
         8.16    0.00127319
         8.17    0.00127279
         8.18     0.0012724
         8.19    0.00127201
          8.2    0.00127161
         8.21    0.00127122
         8.22    0.00127083
         8.23    0.00127044
         8.24    0.00127005
         8.25    0.00126967
         8.26    0.00126928
         8.27    0.00126889
         8.28    0.00126851
         8.29    0.00126812
          8.3    0.00126774
         8.31    0.00126736
         8.32    0.00126697
         8.33    0.00126659
         8.34    0.00126621
         8.35    0.00126583
         8.36    0.00126546
         8.37    0.00126508
         8.38     0.0012647
         8.39    0.00126433
          8.4    0.00126395
         8.41    0.00126358
         8.42     0.0012632
         8.43    0.00126283
         8.44    0.00126246
         8.45    0.00126209
         8.46    0.00126172
         8.47    0.00126135
         8.48    0.00126098
         8.49    0.00126061
          8.5    0.00126025
         8.51    0.00125988
         8.52    0.00125951
         8.53    0.00125915
         8.54    0.00125879
         8.55    0.00125842
         8.56    0.00125806
         8.57     0.0012577
         8.58    0.00125734
         8.59    0.00125698
          8.6    0.00125662
         8.61    0.00125626
         8.62     0.0012559
         8.63    0.00125555
         8.64    0.00125519
         8.65    0.00125484
         8.66    0.00125448
         8.67    0.00125413
         8.68    0.00125378
         8.69    0.00125342
          8.7    0.00125307
         8.71    0.00125272
         8.72    0.00125237
         8.73    0.00125202
         8.74    0.00125167
         8.75    0.00125133
         8.76    0.00125098
         8.77    0.00125063
         8.78    0.00125029
         8.79    0.00124994
          8.8     0.0012496
         8.81    0.00124926
         8.82    0.00124891
         8.83    0.00124857
         8.84    0.00124823
         8.85    0.00124789
         8.86    0.00124755
         8.87    0.00124721
         8.88    0.00124687
         8.89    0.00124653
          8.9     0.0012462
         8.91    0.00124586
         8.92    0.00124553
         8.93    0.00124519
         8.94    0.00124486
         8.95    0.00124452
         8.96    0.00124419
         8.97    0.00124386
         8.98    0.00124353
         8.99     0.0012432
            9    0.00124287
         9.01    0.00124254
         9.02    0.00124221
         9.03    0.00124188
         9.04    0.00124155
         9.05    0.00124123
         9.06     0.0012409
         9.07    0.00124057
         9.08    0.00124025
         9.09    0.00123993
          9.1     0.0012396
         9.11    0.00123928
         9.12    0.00123896
         9.13    0.00123864
         9.14    0.00123832
         9.15      0.001238
         9.16    0.00123768
         9.17    0.00123736
         9.18    0.00123704
         9.19    0.00123672
          9.2     0.0012364
         9.21    0.00123609
         9.22    0.00123577
         9.23    0.00123546
         9.24    0.00123514
         9.25    0.00123483
         9.26    0.00123452
         9.27     0.0012342
         9.28    0.00123389
         9.29    0.00123358
          9.3    0.00123327
         9.31    0.00123296
         9.32    0.00123265
         9.33    0.00123234
         9.34    0.00123203
         9.35    0.00123172
         9.36    0.00123142
         9.37    0.00123111
         9.38     0.0012308
         9.39     0.0012305
          9.4    0.00123019
         9.41    0.00122989
         9.42    0.00122959
         9.43    0.00122928
         9.44    0.00122898
         9.45    0.00122868
         9.46    0.00122838
         9.47    0.00122808
         9.48    0.00122778
         9.49    0.00122748
          9.5    0.00122718
         9.51    0.00122688
         9.52    0.00122658
         9.53    0.00122628
         9.54    0.00122599
         9.55    0.00122569
         9.56     0.0012254
         9.57     0.0012251
         9.58    0.00122481
         9.59    0.00122451
          9.6    0.00122422
         9.61    0.00122393
         9.62    0.00122363
         9.63    0.00122334
         9.64    0.00122305
         9.65    0.00122276
         9.66    0.00122247
         9.67    0.00122218
         9.68    0.00122189
         9.69     0.0012216
          9.7    0.00122132
         9.71    0.00122103
         9.72    0.00122074
         9.73    0.00122046
         9.74    0.00122017
         9.75    0.00121989
         9.76     0.0012196
         9.77    0.00121932
         9.78    0.00121903
         9.79    0.00121875
          9.8    0.00121847
         9.81    0.00121819
         9.82     0.0012179
         9.83    0.00121762
         9.84    0.00121734
         9.85    0.00121706
         9.86    0.00121678
         9.87     0.0012165
         9.88    0.00121623
         9.89    0.00121595
          9.9    0.00121567
         9.91    0.00121539
         9.92    0.00121512
         9.93    0.00121484
         9.94    0.00121457
         9.95    0.00121429
         9.96    0.00121402
         9.97    0.00121374
         9.98    0.00121347
         9.99     0.0012132
           10    0.00121292
        10.01    0.00121265
        10.02    0.00121238
        10.03    0.00121211
        10.04    0.00121184
        10.05    0.00121157
        10.06     0.0012113
        10.07    0.00121103
        10.08    0.00121076
        10.09    0.00121049
         10.1    0.00121023
        10.11    0.00120996
        10.12    0.00120969
        10.13    0.00120943
        10.14    0.00120916
        10.15     0.0012089
        10.16    0.00120863
        10.17    0.00120837
        10.18     0.0012081
        10.19    0.00120784
         10.2    0.00120758
        10.21    0.00120731
        10.22    0.00120705
        10.23    0.00120679
        10.24    0.00120653
        10.25    0.00120627
        10.26    0.00120601
        10.27    0.00120575
        10.28    0.00120549
        10.29    0.00120523
         10.3    0.00120497
        10.31    0.00120472
        10.32    0.00120446
        10.33     0.0012042
        10.34    0.00120394
        10.35    0.00120369
        10.36    0.00120343
        10.37    0.00120318
        10.38    0.00120292
        10.39    0.00120267
         10.4    0.00120241
        10.41    0.00120216
        10.42    0.00120191
        10.43    0.00120166
        10.44     0.0012014
        10.45    0.00120115
        10.46     0.0012009
        10.47    0.00120065
        10.48     0.0012004
        10.49    0.00120015
         10.5     0.0011999
        10.51    0.00119965
        10.52     0.0011994
        10.53    0.00119915
        10.54    0.00119891
        10.55    0.00119866
        10.56    0.00119841
        10.57    0.00119816
        10.58    0.00119792
        10.59    0.00119767
         10.6    0.00119743
        10.61    0.00119718
        10.62    0.00119694
        10.63    0.00119669
        10.64    0.00119645
        10.65    0.00119621
        10.66    0.00119596
        10.67    0.00119572
        10.68    0.00119548