# Probe 0 (0.05 0.05 0.005)
#       Probe             0
#        Time
         0.01          0.04
         0.02     0.0399999
         0.03     0.0399998
         0.04     0.0399995
         0.05     0.0399988
         0.06     0.0399975
         0.07     0.0399953
         0.08     0.0399919
         0.09     0.0399869
          0.1     0.0399799
         0.11     0.0399704
         0.12     0.0399579
         0.13     0.0399417
         0.14     0.0399213
         0.15     0.0398959
         0.16     0.0398649
         0.17     0.0398275
         0.18     0.0397828
         0.19       0.03973
          0.2     0.0396683
         0.21     0.0395967
         0.22     0.0395142
         0.23       0.03942
         0.24      0.039313
         0.25     0.0391923
         0.26     0.0390569
         0.27     0.0389057
         0.28      0.038738
         0.29     0.0385527
          0.3     0.0383489
         0.31     0.0381258
         0.32     0.0378827
         0.33     0.0376187
         0.34     0.0373334
         0.35     0.0370261
         0.36     0.0366965
         0.37     0.0363441
         0.38     0.0359688
         0.39     0.0355706
          0.4     0.0351496
         0.41     0.0347058
         0.42     0.0342398
         0.43      0.033752
         0.44     0.0332432
         0.45     0.0327141
         0.46     0.0321657
         0.47     0.0315992
         0.48     0.0310158
         0.49     0.0304168
          0.5     0.0298038
         0.51     0.0291783
         0.52      0.028542
         0.53     0.0278966
         0.54     0.0272439
         0.55     0.0265857
         0.56     0.0259237
         0.57     0.0252599
         0.58     0.0245959
         0.59     0.0239336
          0.6     0.0232745
         0.61     0.0226203
         0.62     0.0219725
         0.63     0.0213326
         0.64     0.0207018
         0.65     0.0200813
         0.66     0.0194723
         0.67     0.0188757
         0.68     0.0182924
         0.69     0.0177231
          0.7     0.0171684
         0.71     0.0166289
         0.72     0.0161049
         0.73     0.0155966
         0.74     0.0151044
         0.75     0.0146282
         0.76     0.0141682
         0.77     0.0137241
         0.78      0.013296
         0.79     0.0128836
          0.8     0.0124867
         0.81     0.0121049
         0.82      0.011738
         0.83     0.0113856
         0.84     0.0110472
         0.85     0.0107225
         0.86     0.0104111
         0.87     0.0101125
         0.88    0.00982633
         0.89    0.00955202
          0.9     0.0092892
         0.91    0.00903739
         0.92    0.00879617
         0.93     0.0085651
         0.94    0.00834374
         0.95    0.00813169
         0.96    0.00792854
         0.97     0.0077339
         0.98    0.00754737
         0.99    0.00736861
            1    0.00719724
         1.01    0.00703294
         1.02    0.00687537
         1.03    0.00672422
         1.04    0.00657919
         1.05    0.00643999
         1.06    0.00630635
         1.07    0.00617801
         1.08    0.00605471
         1.09    0.00593623
          1.1    0.00582233
         1.11     0.0057128
         1.12    0.00560743
         1.13    0.00550603
         1.14    0.00540842
         1.15    0.00531441
         1.16    0.00522385
         1.17    0.00513658
         1.18    0.00505243
         1.19    0.00497128
          1.2    0.00489299
         1.21    0.00481742
         1.22    0.00474445
         1.23    0.00467398
         1.24    0.00460588
         1.25    0.00454006
         1.26    0.00447641
         1.27    0.00441485
         1.28    0.00435528
         1.29    0.00429761
          1.3    0.00424177
         1.31    0.00418768
         1.32    0.00413526
         1.33    0.00408446
         1.34    0.00403519
         1.35     0.0039874
         1.36    0.00394103
         1.37    0.00389602
         1.38    0.00385232
         1.39    0.00380987
          1.4    0.00376863
         1.41    0.00372855
         1.42    0.00368959
         1.43     0.0036517
         1.44    0.00361484
         1.45    0.00357897
         1.46    0.00354406
         1.47    0.00351007
         1.48    0.00347697
         1.49    0.00344472
          1.5     0.0034133
         1.51    0.00338267
         1.52    0.00335281
         1.53    0.00332369
         1.54    0.00329529
         1.55    0.00326757
         1.56    0.00324053
         1.57    0.00321412
         1.58    0.00318834
         1.59    0.00316316
          1.6    0.00313856
         1.61    0.00311452
         1.62    0.00309103
         1.63    0.00306806
         1.64     0.0030456
         1.65    0.00302364
         1.66    0.00300216
         1.67    0.00298113
         1.68    0.00296056
         1.69    0.00294042
          1.7    0.00292071
         1.71     0.0029014
         1.72     0.0028825
         1.73    0.00286397
         1.74    0.00284582
         1.75    0.00282804
         1.76     0.0028106
         1.77    0.00279351
         1.78    0.00277675
         1.79    0.00276032
          1.8     0.0027442
         1.81    0.00272838
         1.82    0.00271286
         1.83    0.00269763
         1.84    0.00268269
         1.85    0.00266801
         1.86     0.0026536
         1.87    0.00263945
         1.88    0.00262556
         1.89     0.0026119
          1.9    0.00259849
         1.91    0.00258531
         1.92    0.00257236
         1.93    0.00255963
         1.94    0.00254712
         1.95    0.00253481
         1.96    0.00252271
         1.97    0.00251081
         1.98    0.00249911
         1.99     0.0024876
            2    0.00247627
         2.01    0.00246512
         2.02    0.00245416
         2.03    0.00244336
         2.04    0.00243273
         2.05    0.00242227
         2.06    0.00241197
         2.07    0.00240183
         2.08    0.00239184
         2.09      0.002382
          2.1    0.00237231
         2.11    0.00236276
         2.12    0.00235335
         2.13    0.00234408
         2.14    0.00233495
         2.15    0.00232595
         2.16    0.00231707
         2.17    0.00230832
         2.18     0.0022997
         2.19    0.00229119
          2.2     0.0022828
         2.21    0.00227453
         2.22    0.00226637
         2.23    0.00225833
         2.24    0.00225039
         2.25    0.00224256
         2.26    0.00223483
         2.27     0.0022272
         2.28    0.00221968
         2.29    0.00221225
          2.3    0.00220492
         2.31    0.00219768
         2.32    0.00219054
         2.33    0.00218348
         2.34    0.00217652
         2.35    0.00216964
         2.36    0.00216285
         2.37    0.00215614
         2.38    0.00214952
         2.39    0.00214297
          2.4    0.00213651
         2.41    0.00213012
         2.42    0.00212381
         2.43    0.00211757
         2.44    0.00211141
         2.45    0.00210532
         2.46     0.0020993
         2.47    0.00209336
         2.48    0.00208748
         2.49    0.00208166
          2.5    0.00207592
         2.51    0.00207024
         2.52    0.00206462
         2.53    0.00205906
         2.54    0.00205357
         2.55    0.00204814
         2.56    0.00204277
         2.57    0.00203745
         2.58     0.0020322
         2.59      0.002027
          2.6    0.00202186
         2.61    0.00201677
         2.62    0.00201173
         2.63    0.00200675
         2.64    0.00200182
         2.65    0.00199694
         2.66    0.00199212
         2.67    0.00198734
         2.68    0.00198261
         2.69    0.00197793
          2.7     0.0019733
         2.71    0.00196871
         2.72    0.00196417
         2.73    0.00195968
         2.74    0.00195523
         2.75    0.00195082
         2.76    0.00194646
         2.77    0.00194214
         2.78    0.00193786
         2.79    0.00193362
          2.8    0.00192942
         2.81    0.00192527
         2.82    0.00192115
         2.83    0.00191707
         2.84    0.00191303
         2.85    0.00190903
         2.86    0.00190506
         2.87    0.00190114
         2.88    0.00189724
         2.89    0.00189339
          2.9    0.00188957
         2.91    0.00188578
         2.92    0.00188203
         2.93    0.00187831
         2.94    0.00187462
         2.95    0.00187097
         2.96    0.00186735
         2.97    0.00186376
         2.98     0.0018602
         2.99    0.00185668
            3    0.00185318
         3.01    0.00184972
         3.02    0.00184628
         3.03    0.00184287
         3.04     0.0018395
         3.05    0.00183615
         3.06    0.00183283
         3.07    0.00182953
         3.08    0.00182627
         3.09    0.00182303
          3.1    0.00181982
         3.11    0.00181663
         3.12    0.00181347
         3.13    0.00181034
         3.14    0.00180723
         3.15    0.00180415
         3.16    0.00180109
         3.17    0.00179806
         3.18    0.00179505
         3.19    0.00179206
          3.2     0.0017891
         3.21    0.00178616
         3.22    0.00178325
         3.23    0.00178036
         3.24    0.00177749
         3.25    0.00177464
         3.26    0.00177181
         3.27    0.00176901
         3.28    0.00176622
         3.29    0.00176346
          3.3    0.00176072
         3.31      0.001758
         3.32     0.0017553
         3.33    0.00175262
         3.34    0.00174996
         3.35    0.00174732
         3.36    0.00174469
         3.37    0.00174209
         3.38    0.00173951
         3.39    0.00173694
          3.4     0.0017344
         3.41    0.00173187
         3.42    0.00172936
         3.43    0.00172687
         3.44     0.0017244
         3.45    0.00172194
         3.46     0.0017195
         3.47    0.00171708
         3.48    0.00171467
         3.49    0.00171229
          3.5    0.00170991
         3.51    0.00170756
         3.52    0.00170522
         3.53     0.0017029
         3.54    0.00170059
         3.55     0.0016983
         3.56    0.00169602
         3.57    0.00169376
         3.58    0.00169152
         3.59    0.00168929
          3.6    0.00168707
         3.61    0.00168487
         3.62    0.00168269
         3.63    0.00168052
         3.64    0.00167836
         3.65    0.00167621
         3.66    0.00167409
         3.67    0.00167197
         3.68    0.00166987
         3.69    0.00166778
          3.7    0.00166571
         3.71    0.00166364
         3.72     0.0016616
         3.73    0.00165956
         3.74    0.00165754
         3.75    0.00165553
         3.76    0.00165353
         3.77    0.00165155
         3.78    0.00164958
         3.79    0.00164762
          3.8    0.00164567
         3.81    0.00164373
         3.82    0.00164181
         3.83     0.0016399
         3.84      0.001638
         3.85    0.00163611
         3.86    0.00163423
         3.87    0.00163236
         3.88    0.00163051
         3.89    0.00162866
          3.9    0.00162683
         3.91    0.00162501
         3.92     0.0016232
         3.93     0.0016214
         3.94    0.00161961
         3.95    0.00161783
         3.96    0.00161606
         3.97     0.0016143
         3.98    0.00161255
         3.99    0.00161082
            4    0.00160909
         4.01    0.00160737
         4.02    0.00160566
         4.03    0.00160396
         4.04    0.00160227
         4.05    0.00160059
         4.06    0.00159892
         4.07    0.00159726
         4.08    0.00159561
         4.09    0.00159397
          4.1    0.00159234
         4.11    0.00159071
         4.12     0.0015891
         4.13    0.00158749
         4.14    0.00158589
         4.15    0.00158431
         4.16    0.00158273
         4.17    0.00158115
         4.18    0.00157959
         4.19    0.00157804
          4.2    0.00157649
         4.21    0.00157495
         4.22    0.00157343
         4.23     0.0015719
         4.24    0.00157039
         4.25    0.00156889
         4.26    0.00156739
         4.27     0.0015659
         4.28    0.00156442
         4.29    0.00156295
          4.3    0.00156148
         4.31    0.00156002
         4.32    0.00155857
         4.33    0.00155713
         4.34    0.00155569
         4.35    0.00155426
         4.36    0.00155284
         4.37    0.00155143
         4.38    0.00155002
         4.39    0.00154862
          4.4    0.00154723
         4.41    0.00154585
         4.42    0.00154447
         4.43     0.0015431
         4.44    0.00154173
         4.45    0.00154037
         4.46    0.00153902
         4.47    0.00153768
         4.48    0.00153634
         4.49    0.00153501
          4.5    0.00153369
         4.51    0.00153237
         4.52    0.00153106
         4.53    0.00152975
         4.54    0.00152845
         4.55    0.00152716
         4.56    0.00152587
         4.57    0.00152459
         4.58    0.00152332
         4.59    0.00152205
          4.6    0.00152079
         4.61    0.00151953
         4.62    0.00151828
         4.63    0.00151704
         4.64     0.0015158
         4.65    0.00151457
         4.66    0.00151334
         4.67    0.00151212
         4.68    0.00151091
         4.69     0.0015097
          4.7    0.00150849
         4.71     0.0015073
         4.72     0.0015061
         4.73    0.00150492
         4.74    0.00150373
         4.75    0.00150256
         4.76    0.00150139
         4.77    0.00150022
         4.78    0.00149906
         4.79    0.00149791
          4.8    0.00149676
         4.81    0.00149561
         4.82    0.00149447
         4.83    0.00149334
         4.84    0.00149221
         4.85    0.00149108
         4.86    0.00148996
         4.87    0.00148885
         4.88    0.00148774
         4.89    0.00148663
          4.9    0.00148553
         4.91    0.00148444
         4.92    0.00148335
         4.93    0.00148226
         4.94    0.00148118
         4.95    0.00148011
         4.96    0.00147903
         4.97    0.00147797
         4.98     0.0014769
         4.99    0.00147585
            5    0.00147479
         5.01    0.00147374
         5.02     0.0014727
         5.03    0.00147166
         5.04    0.00147062
         5.05    0.00146959
         5.06    0.00146857
         5.07    0.00146754
         5.08    0.00146653
         5.09    0.00146551
          5.1     0.0014645
         5.11     0.0014635
         5.12     0.0014625
         5.13     0.0014615
         5.14     0.0014605
         5.15    0.00145952
         5.16    0.00145853
         5.17    0.00145755
         5.18    0.00145657
         5.19     0.0014556
          5.2    0.00145463
         5.21    0.00145367
         5.22     0.0014527
         5.23    0.00145175
         5.24    0.00145079
         5.25    0.00144984
         5.26     0.0014489
         5.27    0.00144795
         5.28    0.00144702
         5.29    0.00144608
          5.3    0.00144515
         5.31    0.00144422
         5.32     0.0014433
         5.33    0.00144238
         5.34    0.00144146
         5.35    0.00144055
         5.36    0.00143964
         5.37    0.00143874
         5.38    0.00143783
         5.39    0.00143693
          5.4    0.00143604
         5.41    0.00143515
         5.42    0.00143426
         5.43    0.00143337
         5.44    0.00143249
         5.45    0.00143161
         5.46    0.00143074
         5.47    0.00142987
         5.48      0.001429
         5.49    0.00142813
          5.5    0.00142727
         5.51    0.00142641
         5.52    0.00142556
         5.53    0.00142471
         5.54    0.00142386
         5.55    0.00142301
         5.56    0.00142217
         5.57    0.00142133
         5.58    0.00142049
         5.59    0.00141966
          5.6    0.00141883
         5.61      0.001418
         5.62    0.00141718
         5.63    0.00141636
         5.64    0.00141554
         5.65    0.00141472
         5.66    0.00141391
         5.67     0.0014131
         5.68     0.0014123
         5.69    0.00141149
          5.7    0.00141069
         5.71     0.0014099
         5.72     0.0014091
         5.73    0.00140831
         5.74    0.00140752
         5.75    0.00140673
         5.76    0.00140595
         5.77    0.00140517
         5.78    0.00140439
         5.79    0.00140362
          5.8    0.00140284
         5.81    0.00140207
         5.82    0.00140131
         5.83    0.00140054
         5.84    0.00139978
         5.85    0.00139902
         5.86    0.00139827
         5.87    0.00139751
         5.88    0.00139676
         5.89    0.00139601
          5.9    0.00139527
         5.91    0.00139452
         5.92    0.00139378
         5.93    0.00139304
         5.94    0.00139231
         5.95    0.00139157
         5.96    0.00139084
         5.97    0.00139012
         5.98    0.00138939
         5.99    0.00138867
            6    0.00138795
         6.01    0.00138723
         6.02    0.00138651
         6.03     0.0013858
         6.04    0.00138509
         6.05    0.00138438
         6.06    0.00138367
         6.07    0.00138297
         6.08    0.00138226
         6.09    0.00138156
          6.1    0.00138087
         6.11    0.00138017
         6.12    0.00137948
         6.13    0.00137879
         6.14     0.0013781
         6.15    0.00137742
         6.16    0.00137673
         6.17    0.00137605
         6.18    0.00137537
         6.19    0.00137469
          6.2    0.00137402
         6.21    0.00137335
         6.22    0.00137268
         6.23    0.00137201
         6.24    0.00137134
         6.25    0.00137068
         6.26    0.00137002
         6.27    0.00136936
         6.28     0.0013687
         6.29    0.00136804
          6.3    0.00136739
         6.31    0.00136674
         6.32    0.00136609
         6.33    0.00136544
         6.34     0.0013648
         6.35    0.00136415
         6.36    0.00136351
         6.37    0.00136287
         6.38    0.00136223
         6.39     0.0013616
          6.4    0.00136097
         6.41    0.00136033
         6.42    0.00135971
         6.43    0.00135908
         6.44    0.00135845
         6.45    0.00135783
         6.46    0.00135721
         6.47    0.00135659
         6.48    0.00135597
         6.49    0.00135535
          6.5    0.00135474
         6.51    0.00135413
         6.52    0.00135352
         6.53    0.00135291
         6.54     0.0013523
         6.55     0.0013517
         6.56    0.00135109
         6.57    0.00135049
         6.58    0.00134989
         6.59     0.0013493
          6.6     0.0013487
         6.61    0.00134811
         6.62    0.00134751
         6.63    0.00134692
         6.64    0.00134633
         6.65    0.00134575
         6.66    0.00134516
         6.67    0.00134458
         6.68      0.001344
         6.69    0.00134342
          6.7    0.00134284
         6.71    0.00134226
         6.72    0.00134169
         6.73    0.00134111
         6.74    0.00134054
         6.75    0.00133997
         6.76     0.0013394
         6.77    0.00133884
         6.78    0.00133827
         6.79    0.00133771
          6.8    0.00133715
         6.81    0.00133659
         6.82    0.00133603
         6.83    0.00133547
         6.84    0.00133491
         6.85    0.00133436
         6.86    0.00133381
         6.87    0.00133326
         6.88    0.00133271
         6.89    0.00133216
          6.9    0.00133162
         6.91    0.00133107
         6.92    0.00133053
         6.93    0.00132999
         6.94    0.00132945
         6.95    0.00132891
         6.96    0.00132837
         6.97    0.00132784
         6.98     0.0013273
         6.99    0.00132677
            7    0.00132624
         7.01    0.00132571
         7.02    0.00132518
         7.03    0.00132465
         7.04    0.00132413
         7.05    0.00132361
         7.06    0.00132308
         7.07    0.00132256
         7.08    0.00132204
         7.09    0.00132153
          7.1    0.00132101
         7.11    0.00132049
         7.12    0.00131998
         7.13    0.00131947
         7.14    0.00131896
         7.15    0.00131845
         7.16    0.00131794
         7.17    0.00131743
         7.18    0.00131693
         7.19    0.00131642
          7.2    0.00131592
         7.21    0.00131542
         7.22    0.00131492
         7.23    0.00131442
         7.24    0.00131392
         7.25    0.00131343
         7.26    0.00131293
         7.27    0.00131244
         7.28    0.00131195
         7.29    0.00131146
          7.3    0.00131097
         7.31    0.00131048
         7.32    0.00130999
         7.33    0.00130951
         7.34    0.00130902
         7.35    0.00130854
         7.36    0.00130806
         7.37    0.00130758
         7.38     0.0013071
         7.39    0.00130662
          7.4    0.00130614
         7.41    0.00130567
         7.42    0.00130519
         7.43    0.00130472
         7.44    0.00130425
         7.45    0.00130378
         7.46    0.00130331
         7.47    0.00130284
         7.48    0.00130237
         7.49    0.00130191
          7.5    0.00130144
         7.51    0.00130098
         7.52    0.00130052
         7.53    0.00130005
         7.54    0.00129959
         7.55    0.00129914
         7.56    0.00129868
         7.57    0.00129822
         7.58    0.00129777
         7.59    0.00129731
          7.6    0.00129686
         7.61    0.00129641
         7.62    0.00129596
         7.63    0.00129551
         7.64    0.00129506
         7.65    0.00129461
         7.66    0.00129416
         7.67    0.00129372
         7.68    0.00129327
         7.69    0.00129283
          7.7    0.00129239
         7.71    0.00129195
         7.72    0.00129151
         7.73    0.00129107
         7.74    0.00129063
         7.75     0.0012902
         7.76    0.00128976
         7.77    0.00128933
         7.78    0.00128889
         7.79    0.00128846
          7.8    0.00128803
         7.81     0.0012876
         7.82    0.00128717
         7.83    0.00128674
         7.84    0.00128632
         7.85    0.00128589
         7.86    0.00128546
         7.87    0.00128504
         7.88    0.00128462
         7.89     0.0012842
          7.9    0.00128377
         7.91    0.00128335
         7.92    0.00128294
         7.93    0.00128252
         7.94     0.0012821
         7.95    0.00128168
         7.96    0.00128127
         7.97    0.00128086
         7.98    0.00128044
         7.99    0.00128003
            8    0.00127962
         8.01    0.00127921
         8.02     0.0012788
         8.03    0.00127839
         8.04    0.00127799
         8.05    0.00127758
         8.06    0.00127717
         8.07    0.00127677
         8.08    0.00127637
         8.09    0.00127596
          8.1    0.00127556
         8.11    0.00127516
         8.12    0.00127476
         8.13    0.00127436
         8.14    0.00127396
         8.15    0.00127357
         8.16    0.00127317
         8.17    0.00127278
         8.18    0.00127238
         8.19    0.00127199
          8.2     0.0012716
         8.21    0.00127121
         8.22    0.00127081
         8.23    0.00127043
         8.24    0.00127004
         8.25    0.00126965
         8.26    0.00126926
         8.27    0.00126888
         8.28    0.00126849
         8.29    0.00126811
          8.3    0.00126772
         8.31    0.00126734
         8.32    0.00126696
         8.33    0.00126658
         8.34     0.0012662
         8.35    0.00126582
         8.36    0.00126544
         8.37    0.00126506
         8.38    0.00126468
         8.39    0.00126431
          8.4    0.00126393
         8.41    0.00126356
         8.42    0.00126319
         8.43    0.00126281
         8.44    0.00126244
         8.45    0.00126207
         8.46     0.0012617
         8.47    0.00126133
         8.48    0.00126096
         8.49    0.00126059
          8.5    0.00126023
         8.51    0.00125986
         8.52     0.0012595
         8.53    0.00125913
         8.54    0.00125877
         8.55     0.0012584
         8.56    0.00125804
         8.57    0.00125768
         8.58    0.00125732
         8.59    0.00125696
          8.6     0.0012566
         8.61    0.00125624
         8.62    0.00125589
         8.63    0.00125553
         8.64    0.00125517
         8.65    0.00125482
         8.66    0.00125446
         8.67    0.00125411
         8.68    0.00125376
         8.69    0.00125341
          8.7    0.00125305
         8.71     0.0012527
         8.72    0.00125235
         8.73      0.001252
         8.74    0.00125166
         8.75    0.00125131
         8.76    0.00125096
         8.77    0.00125062
         8.78    0.00125027
         8.79    0.00124992
          8.8    0.00124958
         8.81    0.00124924
         8.82     0.0012489
         8.83    0.00124855
         8.84    0.00124821
         8.85    0.00124787
         8.86    0.00124753
         8.87    0.00124719
         8.88    0.00124685
         8.89    0.00124652
          8.9    0.00124618
         8.91    0.00124584
         8.92    0.00124551
         8.93    0.00124517
         8.94    0.00124484
         8.95    0.00124451
         8.96    0.00124417
         8.97    0.00124384
         8.98    0.00124351
         8.99    0.00124318
            9    0.00124285
         9.01    0.00124252
         9.02    0.00124219
         9.03    0.00124186
         9.04    0.00124154
         9.05    0.00124121
         9.06    0.00124088
         9.07    0.00124056
         9.08    0.00124023
         9.09    0.00123991
          9.1    0.00123958
         9.11    0.00123926
         9.12    0.00123894
         9.13    0.00123862
         9.14     0.0012383
         9.15    0.00123798
         9.16    0.00123766
         9.17    0.00123734
         9.18    0.00123702
         9.19     0.0012367
          9.2    0.00123639
         9.21    0.00123607
         9.22    0.00123575
         9.23    0.00123544
         9.24    0.00123512
         9.25    0.00123481
         9.26     0.0012345
         9.27    0.00123418
         9.28    0.00123387
         9.29    0.00123356
          9.3    0.00123325
         9.31    0.00123294
         9.32    0.00123263
         9.33    0.00123232
         9.34    0.00123201
         9.35    0.00123171
         9.36     0.0012314
         9.37    0.00123109
         9.38    0.00123079
         9.39    0.00123048
          9.4    0.00123018
         9.41    0.00122987
         9.42    0.00122957
         9.43    0.00122927
         9.44    0.00122896
         9.45    0.00122866
         9.46    0.00122836
         9.47    0.00122806
         9.48    0.00122776
         9.49    0.00122746
          9.5    0.00122716
         9.51    0.00122686
         9.52    0.00122656
         9.53    0.00122627
         9.54    0.00122597
         9.55    0.00122567
         9.56    0.00122538
         9.57    0.00122508
         9.58    0.00122479
         9.59     0.0012245
          9.6     0.0012242
         9.61    0.00122391
         9.62    0.00122362
         9.63    0.00122333
         9.64    0.00122303
         9.65    0.00122274
         9.66    0.00122245
         9.67    0.00122216
         9.68    0.00122188
         9.69    0.00122159
          9.7     0.0012213
         9.71    0.00122101
         9.72    0.00122073
         9.73    0.00122044
         9.74    0.00122015
         9.75    0.00121987
         9.76    0.00121958
         9.77     0.0012193
         9.78    0.00121902
         9.79    0.00121873
          9.8    0.00121845
         9.81    0.00121817
         9.82    0.00121789
         9.83    0.00121761
         9.84    0.00121733
         9.85    0.00121705
         9.86    0.00121677
         9.87    0.00121649
         9.88    0.00121621
         9.89    0.00121593
          9.9    0.00121565
         9.91    0.00121538
         9.92     0.0012151
         9.93    0.00121482
         9.94    0.00121455
         9.95    0.00121427
         9.96      0.001214
         9.97    0.00121373
         9.98    0.00121345
         9.99    0.00121318
           10    0.00121291
        10.01    0.00121263
        10.02    0.00121236
        10.03    0.00121209
        10.04    0.00121182
        10.05    0.00121155
        10.06    0.00121128
        10.07    0.00121101
        10.08    0.00121074
        10.09    0.00121048
         10.1    0.00121021
        10.11    0.00120994
        10.12    0.00120968
        10.13    0.00120941
        10.14    0.00120914
        10.15    0.00120888
        10.16    0.00120861
        10.17    0.00120835
        10.18    0.00120809
        10.19    0.00120782
         10.2    0.00120756
        10.21     0.0012073
        10.22    0.00120703
        10.23    0.00120677
        10.24    0.00120651
        10.25    0.00120625
        10.26    0.00120599
        10.27    0.00120573
        10.28    0.00120547
        10.29    0.00120521
         10.3    0.00120496
        10.31     0.0012047
        10.32    0.00120444
        10.33    0.00120418
        10.34    0.00120393
        10.35    0.00120367
        10.36    0.00120342
        10.37    0.00120316
        10.38    0.00120291
        10.39    0.00120265
         10.4     0.0012024
        10.41    0.00120214
        10.42    0.00120189
        10.43    0.00120164
        10.44    0.00120139
        10.45    0.00120113
        10.46    0.00120088
        10.47    0.00120063
        10.48    0.00120038
        10.49    0.00120013
         10.5    0.00119988
        10.51    0.00119963
        10.52    0.00119938
        10.53    0.00119914
        10.54    0.00119889
        10.55    0.00119864
        10.56    0.00119839
        10.57    0.00119815
        10.58     0.0011979
        10.59    0.00119765
         10.6    0.00119741
        10.61    0.00119716
        10.62    0.00119692
        10.63    0.00119668
        10.64    0.00119643
        10.65    0.00119619
        10.66    0.00119595
        10.67     0.0011957
        10.68    0.00119546