0.040000 
0.040004 
0.039952 
0.039720 
0.039151 
0.038418 
0.037305 
0.035761 
0.033771 
0.031410 
0.028750 
0.025885 
0.023020 
0.020501 
0.018181 
0.016098 
0.014238 
0.012864 
0.011660 
0.010600 
0.009667 
0.008630 
0.007739 
0.006969 
0.006300 
0.005603 
0.005007 
0.004497 
0.004055 
0.003651 
0.003300 
0.002995 
0.002728 
0.002469 
0.002242 
0.002044 
0.001870 
0.001715 
0.001578 
0.001455 
0.001346 
0.001247 
0.001159 
0.001079 
0.001007 
0.000948 
0.000895 
0.000845 
0.000800 
