# Probe 0 (0.05 0.05 0.005)
#       Probe             0
#        Time
          0.1   1.48277e-21
          0.2   2.54479e-20
          0.3   1.34103e-19
          0.4   4.34563e-19
          0.5   1.08674e-18
          0.6   2.29751e-18
          0.7   4.32224e-18
          0.8   7.46477e-18
          0.9   1.20774e-17
            1    1.8561e-17
          1.1   2.73648e-17
          1.2   3.89867e-17
          1.3   5.39728e-17
          1.4   7.29179e-17
          1.5   9.64652e-17
          1.6   1.25307e-16
          1.7   1.60182e-16
          1.8    2.0188e-16
          1.9   2.51239e-16
            2   3.09143e-16
          2.1   3.76527e-16
          2.2   4.54373e-16
          2.3   5.43713e-16
          2.4   6.45626e-16
          2.5   7.61241e-16
          2.6   8.91733e-16
          2.7   1.03833e-15
          2.8    1.2023e-15
          2.9   1.38497e-15
            3   1.58771e-15
          3.1   1.81194e-15
          3.2   2.05912e-15
          3.3   2.33077e-15
          3.4   2.62846e-15
          3.5    2.9538e-15
          3.6   3.30845e-15
          3.7   3.69411e-15
          3.8   4.11256e-15
          3.9   4.56559e-15
            4   5.05507e-15
          4.1   5.58288e-15
          4.2     6.151e-15
          4.3   6.76141e-15
          4.4   7.41617e-15
          4.5   8.11737e-15
          4.6   8.86716e-15
          4.7   9.66774e-15
          4.8   1.05214e-14
          4.9   1.14303e-14
            5   1.23969e-14
          5.1   1.34235e-14
          5.2   1.45126e-14
          5.3   1.56667e-14
          5.4   1.68883e-14
          5.5     1.818e-14
          5.6   1.95445e-14
          5.7   2.09843e-14
          5.8   2.25022e-14
          5.9   2.41011e-14
            6   2.57836e-14
          6.1   2.75528e-14
          6.2   2.94115e-14
          6.3   3.13627e-14
          6.4   3.34094e-14
          6.5   3.55547e-14
          6.6   3.78017e-14
          6.7   4.01536e-14
          6.8   4.26135e-14
          6.9   4.51848e-14
            7   4.78707e-14
          7.1   5.06746e-14
          7.2      5.36e-14
          7.3   5.66502e-14
          7.4   5.98287e-14
          7.5   6.31392e-14
          7.6   6.65853e-14
          7.7   7.01705e-14
          7.8   7.38985e-14
          7.9   7.77732e-14
            8   8.17983e-14
          8.1   8.59777e-14
          8.2   9.03152e-14
          8.3   9.48147e-14
          8.4   9.94804e-14
          8.5   1.04316e-13
          8.6   1.09326e-13
          8.7   1.14514e-13
          8.8   1.19885e-13
          8.9   1.25443e-13
            9   1.31191e-13
          9.1   1.37135e-13
          9.2   1.43279e-13
          9.3   1.49627e-13
          9.4   1.56183e-13
          9.5   1.62953e-13
          9.6    1.6994e-13
          9.7    1.7715e-13
          9.8   1.84587e-13
          9.9   1.92255e-13
           10    2.0016e-13
         10.1   2.08306e-13
         10.2   2.16699e-13
         10.3   2.25342e-13
         10.4   2.34242e-13
         10.5   2.43402e-13
         10.6   2.52829e-13
         10.7   2.62527e-13
         10.8   2.72501e-13
         10.9   2.82756e-13
           11   2.93299e-13
         11.1   3.04134e-13
         11.2   3.15266e-13
         11.3   3.26701e-13
         11.4   3.38444e-13
         11.5   3.50501e-13
         11.6   3.62877e-13
         11.7   3.75578e-13
         11.8    3.8861e-13
         11.9   4.01978e-13
           12   4.15688e-13
         12.1   4.29745e-13
         12.2   4.44156e-13
         12.3   4.58927e-13
         12.4   4.74063e-13
         12.5   4.89571e-13
         12.6   5.05455e-13
         12.7   5.21724e-13
         12.8   5.38381e-13
         12.9   5.55435e-13
           13   5.72891e-13
         13.1   5.90754e-13
         13.2   6.09033e-13
         13.3   6.27732e-13
         13.4   6.46858e-13
         13.5   6.66419e-13
         13.6    6.8642e-13
         13.7   7.06867e-13
         13.8   7.27768e-13
         13.9   7.49129e-13
           14   7.70957e-13
         14.1   7.93259e-13
         14.2    8.1604e-13
         14.3    8.3931e-13
         14.4   8.63073e-13
         14.5   8.87337e-13
         14.6    9.1211e-13
         14.7   9.37397e-13
         14.8   9.63207e-13
         14.9   9.89546e-13
           15   1.01642e-12
         15.1   1.04384e-12
         15.2   1.07181e-12
         15.3   1.10034e-12
         15.4   1.12943e-12
         15.5    1.1591e-12
         15.6   1.18935e-12
         15.7   1.22019e-12
         15.8   1.25162e-12
         15.9   1.28366e-12
           16    1.3163e-12
         16.1   1.34957e-12
         16.2   1.38346e-12
         16.3   1.41799e-12
         16.4   1.45316e-12
         16.5   1.48897e-12
         16.6   1.52545e-12
         16.7    1.5626e-12
         16.8   1.60041e-12
         16.9   1.63891e-12
           17    1.6781e-12
         17.1   1.71799e-12
         17.2   1.75859e-12
         17.3    1.7999e-12
         17.4   1.84194e-12
         17.5    1.8847e-12
         17.6   1.92821e-12
         17.7   1.97247e-12
         17.8   2.01748e-12
         17.9   2.06326e-12
           18   2.10981e-12
         18.1   2.15715e-12
         18.2   2.20528e-12
         18.3   2.25421e-12
         18.4   2.30396e-12
         18.5   2.35451e-12
         18.6    2.4059e-12
         18.7   2.45813e-12
         18.8    2.5112e-12
         18.9   2.56512e-12
           19   2.61991e-12
         19.1   2.67557e-12
         19.2   2.73211e-12
         19.3   2.78955e-12
         19.4   2.84788e-12
         19.5   2.90713e-12
         19.6   2.96729e-12
         19.7   3.02839e-12
         19.8   3.09042e-12
         19.9    3.1534e-12
           20   3.21734e-12
         20.1   3.28225e-12
         20.2   3.34813e-12
         20.3     3.415e-12
         20.4   3.48287e-12
         20.5   3.55174e-12
         20.6   3.62164e-12
         20.7   3.69255e-12
         20.8   3.76451e-12
         20.9   3.83751e-12
           21   3.91156e-12
         21.1   3.98668e-12
         21.2   4.06288e-12
         21.3   4.14017e-12
         21.4   4.21856e-12
         21.5   4.29805e-12
         21.6   4.37866e-12
         21.7    4.4604e-12
         21.8   4.54328e-12
         21.9    4.6273e-12
           22   4.71249e-12
         22.1   4.79885e-12
         22.2   4.88639e-12
         22.3   4.97513e-12
         22.4   5.06506e-12
         22.5   5.15621e-12
         22.6   5.24859e-12
         22.7    5.3422e-12
         22.8   5.43705e-12
         22.9   5.53317e-12
           23   5.63055e-12
         23.1   5.72921e-12
         23.2   5.82917e-12
         23.3   5.93042e-12
         23.4   6.03299e-12
         23.5   6.13689e-12
         23.6   6.24212e-12
         23.7    6.3487e-12
         23.8   6.45663e-12
         23.9   6.56594e-12
           24   6.67663e-12
         24.1   6.78871e-12
         24.2    6.9022e-12
         24.3   7.01711e-12
         24.4   7.13344e-12
         24.5   7.25122e-12
         24.6   7.37044e-12
         24.7   7.49114e-12
         24.8    7.6133e-12
         24.9   7.73696e-12
           25   7.86212e-12
         25.1   7.98878e-12
         25.2   8.11698e-12
         25.3   8.24671e-12
         25.4   8.37799e-12
         25.5   8.51083e-12
         25.6   8.64524e-12
         25.7   8.78124e-12
         25.8   8.91884e-12
         25.9   9.05804e-12
           26   9.19888e-12
         26.1   9.34134e-12
         26.2   9.48546e-12
         26.3   9.63124e-12
         26.4   9.77869e-12
         26.5   9.92782e-12
         26.6   1.00787e-11
         26.7   1.02312e-11
         26.8   1.03855e-11
         26.9   1.05415e-11
           27   1.06993e-11
         27.1   1.08588e-11
         27.2   1.10201e-11
         27.3   1.11832e-11
         27.4   1.13481e-11
         27.5   1.15148e-11
         27.6   1.16834e-11
         27.7   1.18537e-11
         27.8    1.2026e-11
         27.9   1.22001e-11
           28   1.23761e-11
         28.1    1.2554e-11
         28.2   1.27338e-11
         28.3   1.29156e-11
         28.4   1.30992e-11
         28.5   1.32849e-11
         28.6   1.34724e-11
         28.7    1.3662e-11
         28.8   1.38536e-11
         28.9   1.40471e-11
           29   1.42427e-11
         29.1   1.44404e-11
         29.2     1.464e-11
         29.3   1.48418e-11
         29.4   1.50456e-11
         29.5   1.52515e-11
         29.6   1.54595e-11
         29.7   1.56697e-11
         29.8    1.5882e-11
         29.9   1.60964e-11
           30    1.6313e-11
         30.1   1.65317e-11
         30.2   1.67527e-11
         30.3   1.69759e-11
         30.4   1.72012e-11
         30.5   1.74289e-11
         30.6   1.76587e-11
         30.7   1.78909e-11
         30.8   1.81253e-11
         30.9    1.8362e-11
           31   1.86011e-11
         31.1   1.88424e-11
         31.2   1.90861e-11
         31.3   1.93322e-11
         31.4   1.95806e-11
         31.5   1.98314e-11
         31.6   2.00846e-11
         31.7   2.03403e-11
         31.8   2.05984e-11
         31.9   2.08589e-11
           32   2.11218e-11
         32.1   2.13873e-11
         32.2   2.16552e-11
         32.3   2.19257e-11
         32.4   2.21987e-11
         32.5   2.24742e-11
         32.6   2.27523e-11
         32.7    2.3033e-11
         32.8   2.33162e-11
         32.9   2.36021e-11
           33   2.38905e-11
         33.1   2.41816e-11
         33.2   2.44754e-11
         33.3   2.47718e-11
         33.4   2.50709e-11
         33.5   2.53727e-11
         33.6   2.56773e-11
         33.7   2.59845e-11
         33.8   2.62946e-11
         33.9   2.66073e-11
           34   2.69229e-11
         34.1   2.72412e-11
         34.2   2.75624e-11
         34.3   2.78864e-11
         34.4   2.82133e-11
         34.5    2.8543e-11
         34.6   2.88756e-11
         34.7   2.92111e-11
         34.8   2.95495e-11
         34.9   2.98909e-11
           35   3.02351e-11
         35.1   3.05824e-11
         35.2   3.09326e-11
         35.3   3.12859e-11
         35.4   3.16421e-11
         35.5   3.20014e-11
         35.6   3.23638e-11
         35.7   3.27292e-11
         35.8   3.30977e-11
         35.9   3.34693e-11
           36    3.3844e-11
         36.1   3.42219e-11
         36.2   3.46029e-11
         36.3   3.49871e-11
         36.4   3.53745e-11
         36.5    3.5765e-11
         36.6   3.61588e-11
         36.7   3.65559e-11
         36.8   3.69562e-11
         36.9   3.73598e-11
           37   3.77667e-11
         37.1   3.81769e-11
         37.2   3.85904e-11
         37.3   3.90073e-11
         37.4   3.94276e-11
         37.5   3.98512e-11
         37.6   4.02783e-11
         37.7   4.07088e-11
         37.8   4.11427e-11
         37.9     4.158e-11
           38   4.20209e-11
         38.1   4.24652e-11
         38.2   4.29131e-11
         38.3   4.33645e-11
         38.4   4.38194e-11
         38.5    4.4278e-11
         38.6   4.47401e-11
         38.7   4.52058e-11
         38.8   4.56751e-11
         38.9   4.61481e-11
           39   4.66248e-11
         39.1   4.71051e-11
         39.2   4.75891e-11
         39.3   4.80769e-11
         39.4   4.85684e-11
         39.5   4.90636e-11
         39.6   4.95626e-11
         39.7   5.00655e-11
         39.8   5.05721e-11
         39.9   5.10826e-11
           40   5.15969e-11
         40.1   5.21151e-11
         40.2   5.26372e-11
         40.3   5.31633e-11
         40.4   5.36932e-11
         40.5   5.42271e-11
         40.6    5.4765e-11
         40.7   5.53069e-11
         40.8   5.58527e-11
         40.9   5.64026e-11
           41   5.69566e-11
         41.1   5.75146e-11
         41.2   5.80767e-11
         41.3    5.8643e-11
         41.4   5.92133e-11
         41.5   5.97878e-11
         41.6   6.03665e-11
         41.7   6.09494e-11
         41.8   6.15365e-11
         41.9   6.21278e-11
           42   6.27233e-11
         42.1   6.33232e-11
         42.2   6.39273e-11
         42.3   6.45357e-11
         42.4   6.51485e-11
         42.5   6.57656e-11
         42.6   6.63871e-11
         42.7    6.7013e-11
         42.8   6.76433e-11
         42.9   6.82781e-11
           43   6.89173e-11
         43.1    6.9561e-11
         43.2   7.02091e-11
         43.3   7.08618e-11
         43.4   7.15191e-11
         43.5   7.21809e-11
         43.6   7.28473e-11
         43.7   7.35182e-11
         43.8   7.41939e-11
         43.9   7.48741e-11
           44    7.5559e-11
         44.1   7.62486e-11
         44.2    7.6943e-11
         44.3    7.7642e-11
         44.4   7.83458e-11
         44.5   7.90544e-11
         44.6   7.97678e-11
         44.7    8.0486e-11
         44.8    8.1209e-11
         44.9   8.19369e-11
           45   8.26697e-11
         45.1   8.34073e-11
         45.2   8.41499e-11
         45.3   8.48975e-11
         45.4     8.565e-11
         45.5   8.64075e-11
         45.6     8.717e-11
         45.7   8.79376e-11
         45.8   8.87102e-11
         45.9   8.94879e-11
           46   9.02707e-11
         46.1   9.10586e-11
         46.2   9.18517e-11
         46.3     9.265e-11
         46.4   9.34534e-11
         46.5    9.4262e-11
         46.6   9.50759e-11
         46.7   9.58951e-11
         46.8   9.67195e-11
         46.9   9.75492e-11
           47   9.83843e-11
         47.1   9.92247e-11
         47.2    1.0007e-10
         47.3   1.00922e-10
         47.4   1.01778e-10
         47.5    1.0264e-10
         47.6   1.03508e-10
         47.7   1.04381e-10
         47.8   1.05259e-10
         47.9   1.06143e-10
           48   1.07033e-10
         48.1   1.07928e-10
         48.2   1.08829e-10
         48.3   1.09735e-10
         48.4   1.10647e-10
         48.5   1.11565e-10
         48.6   1.12488e-10
         48.7   1.13418e-10
         48.8   1.14352e-10
         48.9   1.15293e-10
           49   1.16239e-10
         49.1   1.17192e-10
         49.2    1.1815e-10
         49.3   1.19114e-10
         49.4   1.20084e-10
         49.5   1.21059e-10
         49.6   1.22041e-10
         49.7   1.23029e-10
         49.8   1.24022e-10
         49.9   1.25022e-10
           50   1.26028e-10
         50.1   1.27039e-10
         50.2   1.28057e-10
         50.3   1.29081e-10
         50.4   1.30111e-10
         50.5   1.31147e-10
         50.6    1.3219e-10
         50.7   1.33238e-10
         50.8   1.34293e-10
         50.9   1.35354e-10
           51   1.36421e-10
         51.1   1.37495e-10
         51.2   1.38575e-10
         51.3   1.39661e-10
         51.4   1.40754e-10
         51.5   1.41853e-10
         51.6   1.42958e-10
         51.7    1.4407e-10
         51.8   1.45189e-10
         51.9   1.46314e-10
           52   1.47445e-10
         52.1   1.48583e-10
         52.2   1.49728e-10
         52.3   1.50879e-10
         52.4   1.52037e-10
         52.5   1.53201e-10
         52.6   1.54372e-10
         52.7    1.5555e-10
         52.8   1.56734e-10
         52.9   1.57926e-10
           53   1.59124e-10
         53.1   1.60329e-10
         53.2    1.6154e-10
         53.3   1.62759e-10
         53.4   1.63984e-10
         53.5   1.65217e-10
         53.6   1.66456e-10
         53.7   1.67702e-10
         53.8   1.68955e-10
         53.9   1.70216e-10
           54   1.71483e-10
         54.1   1.72757e-10
         54.2   1.74039e-10
         54.3   1.75327e-10
         54.4   1.76623e-10
         54.5   1.77926e-10
         54.6   1.79236e-10
         54.7   1.80553e-10
         54.8   1.81877e-10
         54.9   1.83209e-10
           55   1.84548e-10
         55.1   1.85895e-10
         55.2   1.87248e-10
         55.3    1.8861e-10
         55.4   1.89978e-10
         55.5   1.91354e-10
         55.6   1.92738e-10
         55.7   1.94128e-10
         55.8   1.95527e-10
         55.9   1.96933e-10
           56   1.98346e-10
         56.1   1.99768e-10
         56.2   2.01196e-10
         56.3   2.02633e-10
         56.4   2.04077e-10
         56.5   2.05529e-10
         56.6   2.06988e-10
         56.7   2.08456e-10
         56.8   2.09931e-10
         56.9   2.11414e-10
           57   2.12904e-10
         57.1   2.14403e-10
         57.2   2.15909e-10
         57.3   2.17424e-10
         57.4   2.18946e-10
         57.5   2.20477e-10
         57.6   2.22015e-10
         57.7   2.23561e-10
         57.8   2.25116e-10
         57.9   2.26678e-10
           58   2.28249e-10
         58.1   2.29828e-10
         58.2   2.31415e-10
         58.3    2.3301e-10
         58.4   2.34614e-10
         58.5   2.36225e-10
         58.6   2.37845e-10
         58.7   2.39474e-10
         58.8    2.4111e-10
         58.9   2.42756e-10
           59   2.44409e-10
         59.1   2.46071e-10
         59.2   2.47741e-10
         59.3    2.4942e-10
         59.4   2.51107e-10
         59.5   2.52803e-10
         59.6   2.54508e-10
         59.7   2.56221e-10
         59.8   2.57943e-10
         59.9   2.59673e-10
           60   2.61412e-10
         60.1    2.6316e-10
         60.2   2.64916e-10
         60.3   2.66682e-10
         60.4   2.68456e-10
         60.5   2.70239e-10
         60.6   2.72031e-10
         60.7   2.73831e-10
         60.8   2.75641e-10
         60.9    2.7746e-10
           61   2.79287e-10
         61.1   2.81124e-10
         61.2   2.82969e-10
         61.3   2.84824e-10
         61.4   2.86688e-10
         61.5   2.88561e-10
         61.6   2.90443e-10
         61.7   2.92334e-10
         61.8   2.94235e-10
         61.9   2.96145e-10
           62   2.98064e-10
         62.1   2.99992e-10
         62.2    3.0193e-10
         62.3   3.03877e-10
         62.4   3.05833e-10
         62.5   3.07799e-10
         62.6   3.09775e-10
         62.7   3.11759e-10
         62.8   3.13754e-10
         62.9   3.15758e-10
           63   3.17771e-10
         63.1   3.19795e-10
         63.2   3.21827e-10
         63.3    3.2387e-10
         63.4   3.25922e-10
         63.5   3.27984e-10
         63.6   3.30056e-10
         63.7   3.32137e-10
         63.8   3.34228e-10
         63.9    3.3633e-10
           64   3.38441e-10
         64.1   3.40562e-10
         64.2   3.42693e-10
         64.3   3.44833e-10
         64.4   3.46984e-10
         64.5   3.49145e-10
         64.6   3.51316e-10
         64.7   3.53498e-10
         64.8   3.55689e-10
         64.9    3.5789e-10
           65   3.60102e-10
         65.1   3.62324e-10
         65.2   3.64556e-10
         65.3   3.66799e-10
         65.4   3.69052e-10
         65.5   3.71315e-10
         65.6   3.73588e-10
         65.7   3.75872e-10
         65.8   3.78167e-10
         65.9   3.80472e-10
           66   3.82787e-10
         66.1   3.85113e-10
         66.2    3.8745e-10
         66.3   3.89797e-10
         66.4   3.92155e-10
         66.5   3.94524e-10
         66.6   3.96903e-10
         66.7   3.99293e-10
         66.8   4.01694e-10
         66.9   4.04105e-10
           67   4.06528e-10
         67.1   4.08961e-10
         67.2   4.11405e-10
         67.3    4.1386e-10
         67.4   4.16326e-10
         67.5   4.18804e-10
         67.6   4.21292e-10
         67.7   4.23791e-10
         67.8   4.26301e-10
         67.9   4.28823e-10
           68   4.31356e-10
         68.1   4.33899e-10
         68.2   4.36455e-10
         68.3   4.39021e-10
         68.4   4.41599e-10
         68.5   4.44188e-10
         68.6   4.46788e-10
         68.7     4.494e-10
         68.8   4.52023e-10
         68.9   4.54658e-10
           69   4.57304e-10
         69.1   4.59961e-10
         69.2   4.62631e-10
         69.3   4.65312e-10
         69.4   4.68004e-10
         69.5   4.70708e-10
         69.6   4.73424e-10
         69.7   4.76152e-10
         69.8   4.78891e-10
         69.9   4.81642e-10
           70   4.84405e-10
         70.1    4.8718e-10
         70.2   4.89967e-10
         70.3   4.92766e-10
         70.4   4.95576e-10
         70.5   4.98399e-10
         70.6   5.01234e-10
         70.7   5.04081e-10
         70.8    5.0694e-10
         70.9   5.09811e-10
           71   5.12694e-10
         71.1    5.1559e-10
         71.2   5.18497e-10
         71.3   5.21417e-10
         71.4    5.2435e-10
         71.5   5.27294e-10
         71.6   5.30251e-10
         71.7   5.33221e-10
         71.8   5.36203e-10
         71.9   5.39197e-10
           72   5.42204e-10
         72.1   5.45224e-10
         72.2   5.48256e-10
         72.3     5.513e-10
         72.4   5.54358e-10
         72.5   5.57428e-10
         72.6   5.60511e-10
         72.7   5.63606e-10
         72.8   5.66715e-10
         72.9   5.69836e-10
           73    5.7297e-10
         73.1   5.76117e-10
         73.2   5.79277e-10
         73.3    5.8245e-10
         73.4   5.85636e-10
         73.5   5.88835e-10
         73.6   5.92047e-10
         73.7   5.95272e-10
         73.8   5.98511e-10
         73.9   6.01762e-10
           74   6.05027e-10
         74.1   6.08305e-10
         74.2   6.11597e-10
         74.3   6.14901e-10
         74.4   6.18219e-10
         74.5   6.21551e-10
         74.6   6.24896e-10
         74.7   6.28254e-10
         74.8   6.31626e-10
         74.9   6.35012e-10
           75   6.38411e-10
         75.1   6.41824e-10
         75.2    6.4525e-10
         75.3    6.4869e-10
         75.4   6.52144e-10
         75.5   6.55612e-10
         75.6   6.59093e-10
         75.7   6.62588e-10
         75.8   6.66097e-10
         75.9   6.69621e-10
           76   6.73158e-10
         76.1   6.76709e-10
         76.2   6.80274e-10
         76.3   6.83853e-10
         76.4   6.87446e-10
         76.5   6.91053e-10
         76.6   6.94675e-10
         76.7   6.98311e-10
         76.8   7.01961e-10
         76.9   7.05625e-10
           77   7.09304e-10
         77.1   7.12997e-10
         77.2   7.16704e-10
         77.3   7.20426e-10
         77.4   7.24162e-10
         77.5   7.27913e-10
         77.6   7.31678e-10
         77.7   7.35458e-10
         77.8   7.39253e-10
         77.9   7.43062e-10
           78   7.46886e-10
         78.1   7.50725e-10
         78.2   7.54578e-10
         78.3   7.58447e-10
         78.4    7.6233e-10
         78.5   7.66228e-10
         78.6   7.70141e-10
         78.7   7.74069e-10
         78.8   7.78012e-10
         78.9    7.8197e-10
           79   7.85943e-10
         79.1   7.89931e-10
         79.2   7.93934e-10
         79.3   7.97953e-10
         79.4   8.01987e-10
         79.5   8.06036e-10
         79.6     8.101e-10
         79.7    8.1418e-10
         79.8   8.18275e-10
         79.9   8.22385e-10
           80   8.26512e-10
         80.1   8.30653e-10
         80.2    8.3481e-10
         80.3   8.38983e-10
         80.4   8.43171e-10
         80.5   8.47375e-10
         80.6   8.51595e-10
         80.7    8.5583e-10
         80.8   8.60081e-10
         80.9   8.64348e-10
           81   8.68631e-10
         81.1    8.7293e-10
         81.2   8.77244e-10
         81.3   8.81575e-10
         81.4   8.85922e-10
         81.5   8.90284e-10
         81.6   8.94663e-10
         81.7   8.99058e-10
         81.8   9.03469e-10
         81.9   9.07896e-10
           82    9.1234e-10
         82.1     9.168e-10
         82.2   9.21276e-10
         82.3   9.25769e-10
         82.4   9.30278e-10
         82.5   9.34803e-10
         82.6   9.39345e-10
         82.7   9.43903e-10
         82.8   9.48478e-10
         82.9    9.5307e-10
           83   9.57678e-10
         83.1   9.62303e-10
         83.2   9.66945e-10
         83.3   9.71603e-10
         83.4   9.76279e-10
         83.5   9.80971e-10
         83.6    9.8568e-10
         83.7   9.90406e-10
         83.8   9.95149e-10
         83.9   9.99909e-10
           84   1.00469e-09
         84.1   1.00948e-09
         84.2   1.01429e-09
         84.3   1.01912e-09
         84.4   1.02396e-09
         84.5   1.02883e-09
         84.6   1.03371e-09
         84.7   1.03861e-09
         84.8   1.04352e-09
         84.9   1.04845e-09
           85    1.0534e-09
         85.1   1.05837e-09
         85.2   1.06335e-09
         85.3   1.06836e-09
         85.4   1.07338e-09
         85.5   1.07842e-09
         85.6   1.08347e-09
         85.7   1.08854e-09
         85.8   1.09363e-09
         85.9   1.09874e-09
           86   1.10387e-09
         86.1   1.10901e-09
         86.2   1.11418e-09
         86.3   1.11936e-09
         86.4   1.12456e-09
         86.5   1.12977e-09
         86.6   1.13501e-09
         86.7   1.14026e-09
         86.8   1.14553e-09
         86.9   1.15082e-09
           87   1.15613e-09
         87.1   1.16146e-09
         87.2    1.1668e-09
         87.3   1.17216e-09
         87.4   1.17754e-09
         87.5   1.18294e-09
         87.6   1.18836e-09
         87.7    1.1938e-09
         87.8   1.19926e-09
         87.9   1.20473e-09
           88   1.21022e-09
         88.1   1.21574e-09
         88.2   1.22127e-09
         88.3   1.22682e-09
         88.4   1.23238e-09
         88.5   1.23797e-09
         88.6   1.24358e-09
         88.7    1.2492e-09
         88.8   1.25485e-09
         88.9   1.26051e-09
           89   1.26619e-09
         89.1    1.2719e-09
         89.2   1.27762e-09
         89.3   1.28336e-09
         89.4   1.28912e-09
         89.5    1.2949e-09
         89.6   1.30069e-09
         89.7   1.30651e-09
         89.8   1.31235e-09
         89.9   1.31821e-09
           90   1.32408e-09
         90.1   1.32998e-09
         90.2   1.33589e-09
         90.3   1.34183e-09
         90.4   1.34779e-09
         90.5   1.35376e-09
         90.6   1.35976e-09
         90.7   1.36577e-09
         90.8   1.37181e-09
         90.9   1.37786e-09
           91   1.38393e-09
         91.1   1.39003e-09
         91.2   1.39614e-09
         91.3   1.40228e-09
         91.4   1.40843e-09
         91.5   1.41461e-09
         91.6   1.42081e-09
         91.7   1.42702e-09
         91.8   1.43326e-09
         91.9   1.43952e-09
           92   1.44579e-09
         92.1   1.45209e-09
         92.2   1.45841e-09
         92.3   1.46475e-09
         92.4   1.47111e-09
         92.5   1.47749e-09
         92.6   1.48389e-09
         92.7   1.49031e-09
         92.8   1.49675e-09
         92.9   1.50322e-09
           93    1.5097e-09
         93.1   1.51621e-09
         93.2   1.52273e-09
         93.3   1.52928e-09
         93.4   1.53585e-09
         93.5   1.54244e-09
         93.6   1.54905e-09
         93.7   1.55568e-09
         93.8   1.56234e-09
         93.9   1.56901e-09
           94   1.57571e-09
         94.1   1.58243e-09
         94.2   1.58916e-09
         94.3   1.59592e-09
         94.4   1.60271e-09
         94.5   1.60951e-09
         94.6   1.61634e-09
         94.7   1.62318e-09
         94.8   1.63005e-09
         94.9   1.63694e-09
           95   1.64385e-09
         95.1   1.65079e-09
         95.2   1.65774e-09
         95.3   1.66472e-09
         95.4   1.67172e-09
         95.5   1.67874e-09
         95.6   1.68579e-09
         95.7   1.69285e-09
         95.8   1.69994e-09
         95.9   1.70705e-09
           96   1.71419e-09
         96.1   1.72134e-09
         96.2   1.72852e-09
         96.3   1.73572e-09
         96.4   1.74294e-09
         96.5   1.75019e-09
         96.6   1.75746e-09
         96.7   1.76475e-09
         96.8   1.77206e-09
         96.9   1.77939e-09
           97   1.78675e-09
         97.1   1.79413e-09
         97.2   1.80154e-09
         97.3   1.80897e-09
         97.4   1.81642e-09
         97.5   1.82389e-09
         97.6   1.83138e-09
         97.7    1.8389e-09
         97.8   1.84645e-09
         97.9   1.85401e-09
           98    1.8616e-09
         98.1   1.86921e-09
         98.2   1.87685e-09
         98.3    1.8845e-09
         98.4   1.89219e-09
         98.5   1.89989e-09
         98.6   1.90762e-09
         98.7   1.91537e-09
         98.8   1.92315e-09
         98.9   1.93095e-09
           99   1.93877e-09
         99.1   1.94662e-09
         99.2   1.95449e-09
         99.3   1.96239e-09
         99.4    1.9703e-09
         99.5   1.97825e-09
         99.6   1.98621e-09
         99.7    1.9942e-09
         99.8   2.00222e-09
         99.9   2.01026e-09
          100   2.01832e-09
        100.1   2.02641e-09
        100.2   2.03452e-09
        100.3   2.04266e-09
        100.4   2.05082e-09
        100.5     2.059e-09
        100.6   2.06721e-09
        100.7   2.07544e-09
        100.8    2.0837e-09
        100.9   2.09198e-09
          101   2.10029e-09
        101.1   2.10862e-09
        101.2   2.11698e-09
        101.3   2.12536e-09
        101.4   2.13377e-09
        101.5    2.1422e-09
        101.6   2.15066e-09
        101.7   2.15914e-09
        101.8   2.16765e-09
        101.9   2.17618e-09
          102   2.18473e-09
        102.1   2.19332e-09
        102.2   2.20192e-09
        102.3   2.21056e-09
        102.4   2.21922e-09
        102.5    2.2279e-09
        102.6   2.23661e-09
        102.7   2.24534e-09
        102.8    2.2541e-09
        102.9   2.26289e-09
          103    2.2717e-09
        103.1   2.28054e-09
        103.2    2.2894e-09
        103.3   2.29829e-09
        103.4    2.3072e-09
        103.5   2.31614e-09
        103.6   2.32511e-09
        103.7    2.3341e-09
        103.8   2.34312e-09
        103.9   2.35216e-09
          104   2.36123e-09
        104.1   2.37033e-09
        104.2   2.37945e-09
        104.3    2.3886e-09
        104.4   2.39778e-09
        104.5   2.40698e-09
        104.6   2.41621e-09
        104.7   2.42546e-09
        104.8   2.43475e-09
        104.9   2.44405e-09
          105   2.45339e-09
        105.1   2.46275e-09
        105.2   2.47214e-09
        105.3   2.48156e-09
        105.4     2.491e-09
        105.5   2.50047e-09
        105.6   2.50996e-09
        105.7   2.51949e-09
        105.8   2.52904e-09
        105.9   2.53861e-09
          106   2.54822e-09
        106.1   2.55785e-09
        106.2   2.56751e-09
        106.3   2.57719e-09
        106.4   2.58691e-09
        106.5   2.59665e-09
        106.6   2.60642e-09
        106.7   2.61621e-09
        106.8   2.62604e-09