# Probe 0 (0.05 0.05 0.005)
#       Probe             0
#        Time
          0.1   3.40389e+09
          0.2   3.40389e+09
          0.3   3.40389e+09
          0.4   3.40389e+09
          0.5   3.40389e+09
          0.6   3.40389e+09
          0.7   3.40389e+09
          0.8   3.40389e+09
          0.9   3.40389e+09
            1   3.40389e+09
          1.1   3.40389e+09
          1.2   3.40389e+09
          1.3   3.40389e+09
          1.4   3.40389e+09
          1.5   3.40389e+09
          1.6   3.40389e+09
          1.7   3.40389e+09
          1.8   3.40389e+09
          1.9   3.40389e+09
            2   3.40389e+09
          2.1   3.40389e+09
          2.2   3.40389e+09
          2.3   3.40389e+09
          2.4   3.40389e+09
          2.5   3.40389e+09
          2.6   3.40389e+09
          2.7   3.40389e+09
          2.8   3.40389e+09
          2.9   3.40389e+09
            3   3.40389e+09
          3.1   3.40389e+09
          3.2   3.40389e+09
          3.3   3.40389e+09
          3.4   3.40389e+09
          3.5   3.40389e+09
          3.6   3.40389e+09
          3.7   3.40389e+09
          3.8   3.40389e+09
          3.9   3.40389e+09
            4   3.40389e+09
          4.1   3.40389e+09
          4.2   3.40389e+09
          4.3   3.40389e+09
          4.4   3.40389e+09
          4.5   3.40389e+09
          4.6   3.40389e+09
          4.7   3.40389e+09
          4.8   3.40389e+09
          4.9   3.40389e+09
            5   3.40389e+09
          5.1   3.40389e+09
          5.2   3.40389e+09
          5.3   3.40389e+09
          5.4   3.40389e+09
          5.5   3.40389e+09
          5.6   3.40389e+09
          5.7   3.40389e+09
          5.8   3.40389e+09
          5.9   3.40389e+09
            6   3.40389e+09
          6.1   3.40389e+09
          6.2   3.40389e+09
          6.3   3.40389e+09
          6.4   3.40389e+09
          6.5   3.40389e+09
          6.6   3.40389e+09
          6.7   3.40389e+09
          6.8   3.40389e+09
          6.9   3.40389e+09
            7   3.40389e+09
          7.1   3.40389e+09
          7.2   3.40389e+09
          7.3   3.40389e+09
          7.4   3.40389e+09
          7.5   3.40389e+09
          7.6   3.40389e+09
          7.7   3.40389e+09
          7.8   3.40389e+09
          7.9   3.40389e+09
            8   3.40389e+09
          8.1   3.40389e+09
          8.2   3.40389e+09
          8.3   3.40389e+09
          8.4   3.40389e+09
          8.5   3.40389e+09
          8.6   3.40389e+09
          8.7   3.40389e+09
          8.8   3.40389e+09
          8.9   3.40389e+09
            9   3.40389e+09
          9.1   3.40389e+09
          9.2   3.40389e+09
          9.3   3.40389e+09
          9.4   3.40389e+09
          9.5   3.40389e+09
          9.6   3.40389e+09
          9.7   3.40389e+09
          9.8   3.40389e+09
          9.9   3.40389e+09
           10   3.40389e+09
         10.1   3.40389e+09
         10.2   3.40389e+09
         10.3   3.40389e+09
         10.4   3.40389e+09
         10.5   3.40389e+09
         10.6   3.40389e+09
         10.7   3.40389e+09
         10.8   3.40389e+09
         10.9   3.40389e+09
           11   3.40389e+09
         11.1   3.40389e+09
         11.2   3.40389e+09
         11.3   3.40389e+09
         11.4   3.40389e+09
         11.5   3.40389e+09
         11.6   3.40389e+09
         11.7   3.40389e+09
         11.8   3.40389e+09
         11.9   3.40389e+09
           12   3.40389e+09
         12.1   3.40389e+09
         12.2   3.40389e+09
         12.3   3.40389e+09
         12.4   3.40389e+09
         12.5   3.40389e+09
         12.6   3.40389e+09
         12.7   3.40389e+09
         12.8   3.40389e+09
         12.9   3.40389e+09
           13   3.40389e+09
         13.1   3.40389e+09
         13.2   3.40389e+09
         13.3   3.40389e+09
         13.4   3.40389e+09
         13.5   3.40389e+09
         13.6   3.40389e+09
         13.7   3.40389e+09
         13.8   3.40389e+09
         13.9   3.40389e+09
           14   3.40389e+09
         14.1   3.40389e+09
         14.2   3.40389e+09
         14.3   3.40389e+09
         14.4   3.40389e+09
         14.5   3.40389e+09
         14.6   3.40389e+09
         14.7   3.40389e+09
         14.8   3.40389e+09
         14.9   3.40389e+09
           15   3.40389e+09
         15.1   3.40389e+09
         15.2   3.40389e+09
         15.3   3.40389e+09
         15.4   3.40389e+09
         15.5   3.40389e+09
         15.6   3.40389e+09
         15.7   3.40389e+09
         15.8   3.40389e+09
         15.9   3.40389e+09
           16   3.40389e+09
         16.1   3.40389e+09
         16.2   3.40389e+09
         16.3   3.40389e+09
         16.4   3.40389e+09
         16.5   3.40389e+09
         16.6   3.40389e+09
         16.7   3.40389e+09
         16.8   3.40389e+09
         16.9   3.40389e+09
           17   3.40389e+09
         17.1   3.40389e+09
         17.2   3.40389e+09
         17.3   3.40389e+09
         17.4   3.40389e+09
         17.5   3.40389e+09
         17.6   3.40389e+09
         17.7   3.40389e+09
         17.8   3.40389e+09
         17.9   3.40389e+09
           18   3.40389e+09
         18.1   3.40389e+09
         18.2   3.40389e+09
         18.3   3.40389e+09
         18.4   3.40389e+09
         18.5   3.40389e+09
         18.6   3.40389e+09
         18.7   3.40389e+09
         18.8   3.40389e+09
         18.9   3.40389e+09
           19   3.40389e+09
         19.1   3.40389e+09
         19.2   3.40389e+09
         19.3   3.40389e+09
         19.4   3.40389e+09
         19.5   3.40389e+09
         19.6   3.40389e+09
         19.7   3.40389e+09
         19.8   3.40389e+09
         19.9   3.40389e+09
           20   3.40389e+09
         20.1   3.40389e+09
         20.2   3.40389e+09
         20.3   3.40389e+09
         20.4   3.40389e+09
         20.5   3.40389e+09
         20.6   3.40389e+09
         20.7   3.40389e+09
         20.8   3.40389e+09
         20.9   3.40389e+09
           21   3.40389e+09
         21.1   3.40389e+09
         21.2   3.40389e+09
         21.3   3.40389e+09
         21.4   3.40389e+09
         21.5   3.40389e+09
         21.6   3.40389e+09
         21.7   3.40389e+09
         21.8   3.40389e+09
         21.9   3.40389e+09
           22   3.40389e+09
         22.1   3.40389e+09
         22.2   3.40389e+09
         22.3   3.40389e+09
         22.4   3.40389e+09
         22.5   3.40389e+09
         22.6   3.40389e+09
         22.7   3.40389e+09
         22.8   3.40389e+09
         22.9   3.40389e+09
           23   3.40389e+09
         23.1   3.40389e+09
         23.2   3.40389e+09
         23.3   3.40389e+09
         23.4   3.40389e+09
         23.5   3.40389e+09
         23.6   3.40389e+09
         23.7   3.40389e+09
         23.8   3.40389e+09
         23.9   3.40389e+09
           24   3.40389e+09
         24.1   3.40389e+09
         24.2   3.40389e+09
         24.3   3.40389e+09
         24.4   3.40389e+09
         24.5   3.40389e+09
         24.6   3.40389e+09
         24.7   3.40389e+09
         24.8   3.40389e+09
         24.9   3.40389e+09
           25   3.40389e+09
         25.1   3.40389e+09
         25.2   3.40389e+09
         25.3   3.40389e+09
         25.4   3.40389e+09
         25.5   3.40389e+09
         25.6   3.40389e+09
         25.7   3.40389e+09
         25.8   3.40389e+09
         25.9   3.40389e+09
           26   3.40389e+09
         26.1   3.40389e+09
         26.2   3.40389e+09
         26.3   3.40389e+09
         26.4   3.40389e+09
         26.5   3.40389e+09
         26.6   3.40389e+09
         26.7   3.40389e+09
         26.8   3.40389e+09
         26.9   3.40389e+09
           27   3.40389e+09
         27.1   3.40389e+09
         27.2   3.40389e+09
         27.3   3.40389e+09
         27.4   3.40389e+09
         27.5   3.40389e+09
         27.6   3.40389e+09
         27.7   3.40389e+09
         27.8   3.40389e+09
         27.9   3.40389e+09
           28   3.40389e+09
         28.1   3.40389e+09
         28.2   3.40389e+09
         28.3   3.40389e+09
         28.4   3.40389e+09
         28.5   3.40389e+09
         28.6   3.40389e+09
         28.7   3.40389e+09
         28.8   3.40389e+09
         28.9   3.40389e+09
           29   3.40389e+09
         29.1   3.40389e+09
         29.2   3.40389e+09
         29.3   3.40389e+09
         29.4   3.40389e+09
         29.5   3.40389e+09
         29.6   3.40389e+09
         29.7   3.40389e+09
         29.8   3.40389e+09
         29.9   3.40389e+09
           30   3.40389e+09
         30.1   3.40389e+09
         30.2   3.40389e+09
         30.3   3.40389e+09
         30.4   3.40389e+09
         30.5   3.40389e+09
         30.6   3.40389e+09
         30.7   3.40389e+09
         30.8   3.40389e+09
         30.9   3.40389e+09
           31   3.40389e+09
         31.1   3.40389e+09
         31.2   3.40389e+09
         31.3   3.40389e+09
         31.4   3.40389e+09
         31.5   3.40389e+09
         31.6   3.40389e+09
         31.7   3.40389e+09
         31.8   3.40389e+09
         31.9   3.40389e+09
           32   3.40389e+09
         32.1   3.40389e+09
         32.2   3.40389e+09
         32.3   3.40389e+09
         32.4   3.40389e+09
         32.5   3.40389e+09
         32.6   3.40389e+09
         32.7   3.40389e+09
         32.8   3.40389e+09
         32.9   3.40389e+09
           33   3.40389e+09
         33.1   3.40389e+09
         33.2   3.40389e+09
         33.3   3.40389e+09
         33.4   3.40389e+09
         33.5   3.40389e+09
         33.6   3.40389e+09
         33.7   3.40389e+09
         33.8   3.40389e+09
         33.9   3.40389e+09
           34   3.40389e+09
         34.1   3.40389e+09
         34.2   3.40389e+09
         34.3   3.40389e+09
         34.4   3.40389e+09
         34.5   3.40389e+09
         34.6   3.40389e+09
         34.7   3.40389e+09
         34.8   3.40389e+09
         34.9   3.40389e+09
           35   3.40389e+09
         35.1   3.40389e+09
         35.2   3.40389e+09
         35.3   3.40389e+09
         35.4   3.40389e+09
         35.5   3.40389e+09
         35.6   3.40389e+09
         35.7   3.40389e+09
         35.8   3.40389e+09
         35.9   3.40389e+09
           36   3.40389e+09
         36.1   3.40389e+09
         36.2   3.40389e+09
         36.3   3.40389e+09
         36.4   3.40389e+09
         36.5   3.40389e+09
         36.6   3.40389e+09
         36.7   3.40389e+09
         36.8   3.40389e+09
         36.9   3.40389e+09
           37   3.40389e+09
         37.1   3.40389e+09
         37.2   3.40389e+09
         37.3   3.40389e+09
         37.4   3.40389e+09
         37.5   3.40389e+09
         37.6   3.40389e+09
         37.7   3.40389e+09
         37.8   3.40389e+09
         37.9   3.40389e+09
           38   3.40389e+09
         38.1   3.40389e+09
         38.2   3.40389e+09
         38.3   3.40389e+09
         38.4   3.40389e+09
         38.5   3.40389e+09
         38.6   3.40389e+09
         38.7   3.40389e+09
         38.8   3.40389e+09
         38.9   3.40389e+09
           39   3.40389e+09
         39.1   3.40389e+09
         39.2   3.40389e+09
         39.3   3.40389e+09
         39.4   3.40389e+09
         39.5   3.40389e+09
         39.6   3.40389e+09
         39.7   3.40389e+09
         39.8   3.40389e+09
         39.9   3.40389e+09
           40   3.40389e+09
         40.1   3.40389e+09
         40.2   3.40389e+09
         40.3   3.40389e+09
         40.4   3.40389e+09
         40.5   3.40389e+09
         40.6   3.40389e+09
         40.7   3.40389e+09
         40.8   3.40389e+09
         40.9   3.40389e+09
           41   3.40389e+09
         41.1   3.40389e+09
         41.2   3.40389e+09
         41.3   3.40389e+09
         41.4   3.40389e+09
         41.5   3.40389e+09
         41.6   3.40389e+09
         41.7   3.40389e+09
         41.8   3.40389e+09
         41.9   3.40389e+09
           42   3.40389e+09
         42.1   3.40389e+09
         42.2   3.40389e+09
         42.3   3.40389e+09
         42.4   3.40389e+09
         42.5   3.40389e+09
         42.6   3.40389e+09
         42.7   3.40389e+09
         42.8   3.40389e+09
         42.9   3.40389e+09
           43   3.40389e+09
         43.1   3.40389e+09
         43.2   3.40389e+09
         43.3   3.40389e+09
         43.4   3.40389e+09
         43.5   3.40389e+09
         43.6   3.40389e+09
         43.7   3.40389e+09
         43.8   3.40389e+09
         43.9   3.40389e+09
           44   3.40389e+09
         44.1   3.40389e+09
         44.2   3.40389e+09
         44.3   3.40389e+09
         44.4   3.40389e+09
         44.5   3.40389e+09
         44.6   3.40389e+09
         44.7   3.40389e+09
         44.8   3.40389e+09
         44.9   3.40389e+09
           45   3.40389e+09
         45.1   3.40389e+09
         45.2   3.40389e+09
         45.3   3.40389e+09
         45.4   3.40389e+09
         45.5   3.40389e+09
         45.6   3.40389e+09
         45.7   3.40389e+09
         45.8   3.40389e+09
         45.9   3.40389e+09
           46   3.40389e+09
         46.1   3.40389e+09
         46.2   3.40389e+09
         46.3   3.40389e+09
         46.4   3.40389e+09
         46.5   3.40389e+09
         46.6   3.40389e+09
         46.7   3.40389e+09
         46.8   3.40389e+09
         46.9   3.40389e+09
           47   3.40389e+09
         47.1   3.40389e+09
         47.2   3.40389e+09
         47.3   3.40389e+09
         47.4   3.40389e+09
         47.5   3.40389e+09
         47.6   3.40389e+09
         47.7   3.40389e+09
         47.8   3.40389e+09
         47.9   3.40389e+09
           48   3.40389e+09
         48.1   3.40389e+09
         48.2   3.40389e+09
         48.3   3.40389e+09
         48.4   3.40389e+09
         48.5   3.40389e+09
         48.6   3.40389e+09
         48.7   3.40389e+09
         48.8   3.40389e+09
         48.9   3.40389e+09
           49   3.40389e+09
         49.1   3.40389e+09
         49.2   3.40389e+09
         49.3   3.40389e+09
         49.4   3.40389e+09
         49.5   3.40389e+09
         49.6   3.40389e+09
         49.7   3.40389e+09
         49.8   3.40389e+09
         49.9   3.40389e+09
           50   3.40389e+09
         50.1   3.40389e+09
         50.2   3.40389e+09
         50.3   3.40389e+09
         50.4   3.40389e+09
         50.5   3.40389e+09
         50.6   3.40389e+09
         50.7   3.40389e+09
         50.8   3.40389e+09
         50.9   3.40389e+09
           51   3.40389e+09
         51.1   3.40389e+09
         51.2   3.40389e+09
         51.3   3.40389e+09
         51.4   3.40389e+09
         51.5   3.40389e+09
         51.6   3.40389e+09
         51.7   3.40389e+09
         51.8   3.40389e+09
         51.9   3.40389e+09
           52   3.40389e+09
         52.1   3.40389e+09
         52.2   3.40389e+09
         52.3   3.40389e+09
         52.4   3.40389e+09
         52.5   3.40389e+09
         52.6   3.40389e+09
         52.7   3.40389e+09
         52.8   3.40389e+09
         52.9   3.40389e+09
           53   3.40389e+09
         53.1   3.40389e+09
         53.2   3.40389e+09
         53.3   3.40389e+09
         53.4   3.40389e+09
         53.5   3.40389e+09
         53.6   3.40389e+09
         53.7   3.40389e+09
         53.8   3.40389e+09
         53.9   3.40389e+09
           54   3.40389e+09
         54.1   3.40389e+09
         54.2   3.40389e+09
         54.3   3.40389e+09
         54.4   3.40389e+09
         54.5   3.40389e+09
         54.6   3.40389e+09
         54.7   3.40389e+09
         54.8   3.40389e+09
         54.9   3.40389e+09
           55   3.40389e+09
         55.1   3.40389e+09
         55.2   3.40389e+09
         55.3   3.40389e+09
         55.4   3.40389e+09
         55.5   3.40389e+09
         55.6   3.40389e+09
         55.7   3.40389e+09
         55.8   3.40389e+09
         55.9   3.40389e+09
           56   3.40389e+09
         56.1   3.40389e+09
         56.2   3.40389e+09
         56.3   3.40389e+09
         56.4   3.40389e+09
         56.5   3.40389e+09
         56.6   3.40389e+09
         56.7   3.40389e+09
         56.8   3.40389e+09
         56.9   3.40389e+09
           57   3.40389e+09
         57.1   3.40389e+09
         57.2   3.40389e+09
         57.3   3.40389e+09
         57.4   3.40389e+09
         57.5   3.40389e+09
         57.6   3.40389e+09
         57.7   3.40389e+09
         57.8   3.40389e+09
         57.9   3.40389e+09
           58   3.40389e+09
         58.1   3.40389e+09
         58.2   3.40389e+09
         58.3   3.40389e+09
         58.4   3.40389e+09
         58.5   3.40389e+09
         58.6   3.40389e+09
         58.7   3.40389e+09
         58.8   3.40389e+09
         58.9   3.40389e+09
           59   3.40389e+09
         59.1   3.40389e+09
         59.2   3.40389e+09
         59.3   3.40389e+09
         59.4   3.40389e+09
         59.5   3.40389e+09
         59.6   3.40389e+09
         59.7   3.40389e+09
         59.8   3.40389e+09
         59.9   3.40389e+09
           60   3.40389e+09
         60.1   3.40389e+09
         60.2   3.40389e+09
         60.3   3.40389e+09
         60.4   3.40389e+09
         60.5   3.40389e+09
         60.6   3.40389e+09
         60.7   3.40389e+09
         60.8   3.40389e+09
         60.9   3.40389e+09
           61   3.40389e+09
         61.1   3.40389e+09
         61.2   3.40389e+09
         61.3   3.40389e+09
         61.4   3.40389e+09
         61.5   3.40389e+09
         61.6   3.40389e+09
         61.7   3.40389e+09
         61.8   3.40389e+09
         61.9   3.40389e+09
           62   3.40389e+09
         62.1   3.40389e+09
         62.2   3.40389e+09
         62.3   3.40389e+09
         62.4   3.40389e+09
         62.5   3.40389e+09
         62.6   3.40389e+09
         62.7   3.40389e+09
         62.8   3.40389e+09
         62.9   3.40389e+09
           63   3.40389e+09
         63.1   3.40389e+09
         63.2   3.40389e+09
         63.3   3.40389e+09
         63.4   3.40389e+09
         63.5   3.40389e+09
         63.6   3.40389e+09
         63.7   3.40389e+09
         63.8   3.40389e+09
         63.9   3.40389e+09
           64   3.40389e+09
         64.1   3.40389e+09
         64.2   3.40389e+09
         64.3   3.40389e+09
         64.4   3.40389e+09
         64.5   3.40389e+09
         64.6   3.40389e+09
         64.7   3.40389e+09
         64.8   3.40389e+09
         64.9   3.40389e+09
           65   3.40389e+09
         65.1   3.40389e+09
         65.2   3.40389e+09
         65.3   3.40389e+09
         65.4   3.40389e+09
         65.5   3.40389e+09
         65.6   3.40389e+09
         65.7   3.40389e+09
         65.8   3.40389e+09
         65.9   3.40389e+09
           66   3.40389e+09
         66.1   3.40389e+09
         66.2   3.40389e+09
         66.3   3.40389e+09
         66.4   3.40389e+09
         66.5   3.40389e+09
         66.6   3.40389e+09
         66.7   3.40389e+09
         66.8   3.40389e+09
         66.9   3.40389e+09
           67   3.40389e+09
         67.1   3.40389e+09
         67.2   3.40389e+09
         67.3   3.40389e+09
         67.4   3.40389e+09
         67.5   3.40389e+09
         67.6   3.40389e+09
         67.7   3.40389e+09
         67.8   3.40389e+09
         67.9   3.40389e+09
           68   3.40389e+09
         68.1   3.40389e+09
         68.2   3.40389e+09
         68.3   3.40389e+09
         68.4   3.40389e+09
         68.5   3.40389e+09
         68.6   3.40389e+09
         68.7   3.40389e+09
         68.8   3.40389e+09
         68.9   3.40389e+09
           69   3.40389e+09
         69.1   3.40389e+09
         69.2   3.40389e+09
         69.3   3.40389e+09
         69.4   3.40389e+09
         69.5   3.40389e+09
         69.6   3.40389e+09
         69.7   3.40389e+09
         69.8   3.40389e+09
         69.9   3.40389e+09
           70   3.40389e+09
         70.1   3.40389e+09
         70.2   3.40389e+09
         70.3   3.40389e+09
         70.4   3.40389e+09
         70.5   3.40389e+09
         70.6   3.40389e+09
         70.7   3.40389e+09
         70.8   3.40389e+09
         70.9   3.40389e+09
           71   3.40389e+09
         71.1   3.40389e+09
         71.2   3.40389e+09
         71.3   3.40389e+09
         71.4   3.40389e+09
         71.5   3.40389e+09
         71.6   3.40389e+09
         71.7   3.40389e+09
         71.8   3.40389e+09
         71.9   3.40389e+09
           72   3.40389e+09
         72.1   3.40389e+09
         72.2   3.40389e+09
         72.3   3.40389e+09
         72.4   3.40389e+09
         72.5   3.40389e+09
         72.6   3.40389e+09
         72.7   3.40389e+09
         72.8   3.40389e+09
         72.9   3.40389e+09
           73   3.40389e+09
         73.1   3.40389e+09
         73.2   3.40389e+09
         73.3   3.40389e+09
         73.4   3.40389e+09
         73.5   3.40389e+09
         73.6   3.40389e+09
         73.7   3.40389e+09
         73.8   3.40389e+09
         73.9   3.40389e+09
           74   3.40389e+09
         74.1   3.40389e+09
         74.2   3.40389e+09
         74.3   3.40389e+09
         74.4   3.40389e+09
         74.5   3.40389e+09
         74.6   3.40389e+09
         74.7   3.40389e+09
         74.8   3.40389e+09
         74.9   3.40389e+09
           75   3.40389e+09
         75.1   3.40389e+09
         75.2   3.40389e+09
         75.3   3.40389e+09
         75.4   3.40389e+09
         75.5   3.40389e+09
         75.6   3.40389e+09
         75.7   3.40389e+09
         75.8   3.40389e+09
         75.9   3.40389e+09
           76   3.40389e+09
         76.1   3.40389e+09
         76.2   3.40389e+09
         76.3   3.40389e+09
         76.4   3.40389e+09
         76.5   3.40389e+09
         76.6   3.40389e+09
         76.7   3.40389e+09
         76.8   3.40389e+09
         76.9   3.40389e+09
           77   3.40389e+09
         77.1   3.40389e+09
         77.2   3.40389e+09
         77.3   3.40389e+09
         77.4   3.40389e+09
         77.5   3.40389e+09
         77.6   3.40389e+09
         77.7   3.40389e+09
         77.8   3.40389e+09
         77.9   3.40389e+09
           78   3.40389e+09
         78.1   3.40389e+09
         78.2   3.40389e+09
         78.3   3.40389e+09
         78.4   3.40389e+09
         78.5   3.40389e+09
         78.6   3.40389e+09
         78.7   3.40389e+09
         78.8   3.40389e+09
         78.9   3.40389e+09
           79   3.40389e+09
         79.1   3.40389e+09
         79.2   3.40389e+09
         79.3   3.40389e+09
         79.4   3.40389e+09
         79.5   3.40389e+09
         79.6   3.40389e+09
         79.7   3.40389e+09
         79.8   3.40389e+09
         79.9   3.40389e+09
           80   3.40389e+09
         80.1   3.40389e+09
         80.2   3.40389e+09
         80.3   3.40389e+09
         80.4   3.40389e+09
         80.5   3.40389e+09
         80.6   3.40389e+09
         80.7   3.40389e+09
         80.8   3.40389e+09
         80.9   3.40389e+09
           81   3.40389e+09
         81.1   3.40389e+09
         81.2   3.40389e+09
         81.3   3.40389e+09
         81.4   3.40389e+09
         81.5   3.40389e+09
         81.6   3.40389e+09
         81.7   3.40389e+09
         81.8   3.40389e+09
         81.9   3.40389e+09
           82   3.40389e+09
         82.1   3.40389e+09
         82.2   3.40389e+09
         82.3   3.40389e+09
         82.4   3.40389e+09
         82.5   3.40389e+09
         82.6   3.40389e+09
         82.7   3.40389e+09
         82.8   3.40389e+09
         82.9   3.40389e+09
           83   3.40389e+09
         83.1   3.40389e+09
         83.2   3.40389e+09
         83.3   3.40389e+09
         83.4   3.40389e+09
         83.5   3.40389e+09
         83.6   3.40389e+09
         83.7   3.40389e+09
         83.8   3.40389e+09
         83.9   3.40389e+09
           84   3.40389e+09
         84.1   3.40389e+09
         84.2   3.40389e+09
         84.3   3.40389e+09
         84.4   3.40389e+09
         84.5   3.40389e+09
         84.6   3.40389e+09
         84.7   3.40389e+09
         84.8   3.40389e+09
         84.9   3.40389e+09
           85   3.40389e+09
         85.1   3.40389e+09
         85.2   3.40389e+09
         85.3   3.40389e+09
         85.4   3.40389e+09
         85.5   3.40389e+09
         85.6   3.40389e+09
         85.7   3.40389e+09
         85.8   3.40389e+09
         85.9   3.40389e+09
           86   3.40389e+09
         86.1   3.40389e+09
         86.2   3.40389e+09
         86.3   3.40389e+09
         86.4   3.40389e+09
         86.5   3.40389e+09
         86.6   3.40389e+09
         86.7   3.40389e+09
         86.8   3.40389e+09
         86.9   3.40389e+09
           87   3.40389e+09
         87.1   3.40389e+09
         87.2   3.40389e+09
         87.3   3.40389e+09
         87.4   3.40389e+09
         87.5   3.40389e+09
         87.6   3.40389e+09
         87.7   3.40389e+09
         87.8   3.40389e+09
         87.9   3.40389e+09
           88   3.40389e+09
         88.1   3.40389e+09
         88.2   3.40389e+09
         88.3   3.40389e+09
         88.4   3.40389e+09
         88.5   3.40389e+09
         88.6   3.40389e+09
         88.7   3.40389e+09
         88.8   3.40389e+09
         88.9   3.40389e+09
           89   3.40389e+09
         89.1   3.40389e+09
         89.2   3.40389e+09
         89.3   3.40389e+09
         89.4   3.40389e+09
         89.5   3.40389e+09
         89.6   3.40389e+09
         89.7   3.40389e+09
         89.8   3.40389e+09
         89.9   3.40389e+09
           90   3.40389e+09
         90.1   3.40389e+09
         90.2   3.40389e+09
         90.3   3.40389e+09
         90.4   3.40389e+09
         90.5   3.40389e+09
         90.6   3.40389e+09
         90.7   3.40389e+09
         90.8   3.40389e+09
         90.9   3.40389e+09
           91   3.40389e+09
         91.1   3.40389e+09
         91.2   3.40389e+09
         91.3   3.40389e+09
         91.4   3.40389e+09
         91.5   3.40389e+09
         91.6   3.40389e+09
         91.7   3.40389e+09
         91.8   3.40389e+09
         91.9   3.40389e+09
           92   3.40389e+09
         92.1   3.40389e+09
         92.2   3.40389e+09
         92.3   3.40389e+09
         92.4   3.40389e+09
         92.5   3.40389e+09
         92.6   3.40389e+09
         92.7   3.40389e+09
         92.8   3.40389e+09
         92.9   3.40389e+09
           93   3.40389e+09
         93.1   3.40389e+09
         93.2   3.40389e+09
         93.3   3.40389e+09
         93.4   3.40389e+09
         93.5   3.40389e+09
         93.6   3.40389e+09
         93.7   3.40389e+09
         93.8   3.40389e+09
         93.9   3.40389e+09
           94   3.40389e+09
         94.1   3.40389e+09
         94.2   3.40389e+09
         94.3   3.40389e+09
         94.4   3.40389e+09
         94.5   3.40389e+09
         94.6   3.40389e+09
         94.7   3.40389e+09
         94.8   3.40389e+09
         94.9   3.40389e+09
           95   3.40389e+09
         95.1   3.40389e+09
         95.2   3.40389e+09
         95.3   3.40389e+09
         95.4   3.40389e+09
         95.5   3.40389e+09
         95.6   3.40389e+09
         95.7   3.40389e+09
         95.8   3.40389e+09
         95.9   3.40389e+09
           96   3.40389e+09
         96.1   3.40389e+09
         96.2   3.40389e+09
         96.3   3.40389e+09
         96.4   3.40389e+09
         96.5   3.40389e+09
         96.6   3.40389e+09
         96.7   3.40389e+09
         96.8   3.40389e+09
         96.9   3.40389e+09
           97   3.40389e+09
         97.1   3.40389e+09
         97.2   3.40389e+09
         97.3   3.40389e+09
         97.4   3.40389e+09
         97.5   3.40389e+09
         97.6   3.40389e+09
         97.7   3.40389e+09
         97.8   3.40389e+09
         97.9   3.40389e+09
           98   3.40389e+09
         98.1   3.40389e+09
         98.2   3.40389e+09
         98.3   3.40389e+09
         98.4   3.40389e+09
         98.5   3.40389e+09
         98.6   3.40389e+09
         98.7   3.40389e+09
         98.8   3.40389e+09
         98.9   3.40389e+09
           99   3.40389e+09
         99.1   3.40389e+09
         99.2   3.40389e+09
         99.3   3.40389e+09
         99.4   3.40389e+09
         99.5   3.40389e+09
         99.6   3.40389e+09
         99.7   3.40389e+09
         99.8   3.40389e+09
         99.9   3.40389e+09
          100   3.40389e+09
        100.1   3.40389e+09
        100.2   3.40389e+09
        100.3   3.40389e+09
        100.4   3.40389e+09
        100.5   3.40389e+09
        100.6   3.40389e+09
        100.7   3.40389e+09
        100.8   3.40389e+09
        100.9   3.40389e+09
          101   3.40389e+09
        101.1   3.40389e+09
        101.2   3.40389e+09
        101.3   3.40389e+09
        101.4   3.40389e+09
        101.5   3.40389e+09
        101.6   3.40389e+09
        101.7   3.40389e+09
        101.8   3.40389e+09
        101.9   3.40389e+09
          102   3.40389e+09
        102.1   3.40389e+09
        102.2   3.40389e+09
        102.3   3.40389e+09
        102.4   3.40389e+09
        102.5   3.40389e+09
        102.6   3.40389e+09
        102.7   3.40389e+09
        102.8   3.40389e+09
        102.9   3.40389e+09
          103   3.40389e+09
        103.1   3.40389e+09
        103.2   3.40389e+09
        103.3   3.40389e+09
        103.4   3.40389e+09
        103.5   3.40389e+09
        103.6   3.40389e+09
        103.7   3.40389e+09
        103.8   3.40389e+09
        103.9   3.40389e+09
          104   3.40389e+09
        104.1   3.40389e+09
        104.2   3.40389e+09
        104.3   3.40389e+09
        104.4   3.40389e+09
        104.5   3.40389e+09
        104.6   3.40389e+09
        104.7   3.40389e+09
        104.8   3.40389e+09
        104.9   3.40389e+09
          105   3.40389e+09
        105.1   3.40389e+09
        105.2   3.40389e+09
        105.3   3.40389e+09
        105.4   3.40389e+09
        105.5   3.40389e+09
        105.6   3.40389e+09
        105.7   3.40389e+09
        105.8   3.40389e+09
        105.9   3.40389e+09
          106   3.40389e+09
        106.1   3.40389e+09
        106.2   3.40389e+09
        106.3   3.40389e+09
        106.4   3.40389e+09
        106.5   3.40389e+09
        106.6   3.40389e+09
        106.7   3.40389e+09
        106.8   3.40389e+09