# Probe 0 (0.05 0.05 0.005)
#       Probe             0
#        Time
          0.1       211.438
          0.2       211.438
          0.3       211.438
          0.4       211.438
          0.5       211.438
          0.6       211.438
          0.7       211.438
          0.8       211.438
          0.9       211.438
            1       211.438
          1.1       211.438
          1.2       211.438
          1.3       211.438
          1.4       211.438
          1.5       211.438
          1.6       211.438
          1.7       211.438
          1.8       211.438
          1.9       211.438
            2       211.438
          2.1       211.438
          2.2       211.438
          2.3       211.438
          2.4       211.438
          2.5       211.438
          2.6       211.438
          2.7       211.438
          2.8       211.438
          2.9       211.438
            3       211.438
          3.1       211.438
          3.2       211.438
          3.3       211.438
          3.4       211.438
          3.5       211.438
          3.6       211.438
          3.7       211.438
          3.8       211.438
          3.9       211.438
            4       211.438
          4.1       211.438
          4.2       211.438
          4.3       211.438
          4.4       211.438
          4.5       211.438
          4.6       211.438
          4.7       211.438
          4.8       211.438
          4.9       211.438
            5       211.438
          5.1       211.438
          5.2       211.438
          5.3       211.438
          5.4       211.438
          5.5       211.438
          5.6       211.438
          5.7       211.438
          5.8       211.438
          5.9       211.438
            6       211.438
          6.1       211.438
          6.2       211.438
          6.3       211.438
          6.4       211.438
          6.5       211.438
          6.6       211.438
          6.7       211.438
          6.8       211.438
          6.9       211.438
            7       211.438
          7.1       211.438
          7.2       211.438
          7.3       211.438
          7.4       211.438
          7.5       211.438
          7.6       211.438
          7.7       211.438
          7.8       211.438
          7.9       211.438
            8       211.438
          8.1       211.438
          8.2       211.438
          8.3       211.438
          8.4       211.438
          8.5       211.438
          8.6       211.438
          8.7       211.438
          8.8       211.438
          8.9       211.438
            9       211.438
          9.1       211.438
          9.2       211.438
          9.3       211.438
          9.4       211.438
          9.5       211.438
          9.6       211.438
          9.7       211.438
          9.8       211.438
          9.9       211.438
           10       211.438
         10.1       211.438
         10.2       211.438
         10.3       211.438
         10.4       211.438
         10.5       211.438
         10.6       211.438
         10.7       211.438
         10.8       211.438
         10.9       211.438
           11       211.438
         11.1       211.438
         11.2       211.438
         11.3       211.438
         11.4       211.438
         11.5       211.438
         11.6       211.438
         11.7       211.438
         11.8       211.438
         11.9       211.438
           12       211.438
         12.1       211.438
         12.2       211.438
         12.3       211.438
         12.4       211.438
         12.5       211.438
         12.6       211.438
         12.7       211.438
         12.8       211.438
         12.9       211.438
           13       211.438
         13.1       211.438
         13.2       211.438
         13.3       211.438
         13.4       211.438
         13.5       211.438
         13.6       211.438
         13.7       211.438
         13.8       211.438
         13.9       211.438
           14       211.438
         14.1       211.438
         14.2       211.438
         14.3       211.438
         14.4       211.438
         14.5       211.438
         14.6       211.438
         14.7       211.438
         14.8       211.438
         14.9       211.438
           15       211.438
         15.1       211.438
         15.2       211.438
         15.3       211.438
         15.4       211.438
         15.5       211.438
         15.6       211.438
         15.7       211.438
         15.8       211.438
         15.9       211.438
           16       211.438
         16.1       211.438
         16.2       211.438
         16.3       211.438
         16.4       211.438
         16.5       211.438
         16.6       211.438
         16.7       211.438
         16.8       211.438
         16.9       211.438
           17       211.438
         17.1       211.438
         17.2       211.438
         17.3       211.438
         17.4       211.438
         17.5       211.438
         17.6       211.438
         17.7       211.438
         17.8       211.438
         17.9       211.438
           18       211.438
         18.1       211.438
         18.2       211.438
         18.3       211.438
         18.4       211.438
         18.5       211.438
         18.6       211.438
         18.7       211.438
         18.8       211.438
         18.9       211.438
           19       211.438
         19.1       211.438
         19.2       211.438
         19.3       211.438
         19.4       211.438
         19.5       211.438
         19.6       211.438
         19.7       211.438
         19.8       211.438
         19.9       211.438
           20       211.438
         20.1       211.438
         20.2       211.438
         20.3       211.438
         20.4       211.438
         20.5       211.438
         20.6       211.438
         20.7       211.438
         20.8       211.438
         20.9       211.438
           21       211.438
         21.1       211.438
         21.2       211.438
         21.3       211.438
         21.4       211.438
         21.5       211.438
         21.6       211.438
         21.7       211.438
         21.8       211.438
         21.9       211.438
           22       211.438
         22.1       211.438
         22.2       211.438
         22.3       211.438
         22.4       211.438
         22.5       211.438
         22.6       211.438
         22.7       211.438
         22.8       211.438
         22.9       211.438
           23       211.438
         23.1       211.438
         23.2       211.438
         23.3       211.438
         23.4       211.438
         23.5       211.438
         23.6       211.438
         23.7       211.438
         23.8       211.438
         23.9       211.438
           24       211.438
         24.1       211.438
         24.2       211.438
         24.3       211.438
         24.4       211.438
         24.5       211.438
         24.6       211.438
         24.7       211.438
         24.8       211.438
         24.9       211.438
           25       211.438
         25.1       211.438
         25.2       211.438
         25.3       211.438
         25.4       211.438
         25.5       211.438
         25.6       211.438
         25.7       211.438
         25.8       211.438
         25.9       211.438
           26       211.438
         26.1       211.438
         26.2       211.438
         26.3       211.438
         26.4       211.438
         26.5       211.438
         26.6       211.438
         26.7       211.438
         26.8       211.438
         26.9       211.438
           27       211.438
         27.1       211.438
         27.2       211.438
         27.3       211.438
         27.4       211.438
         27.5       211.438
         27.6       211.438
         27.7       211.438
         27.8       211.438
         27.9       211.438
           28       211.438
         28.1       211.438
         28.2       211.438
         28.3       211.438
         28.4       211.438
         28.5       211.438
         28.6       211.438
         28.7       211.438
         28.8       211.438
         28.9       211.438
           29       211.438
         29.1       211.438
         29.2       211.438
         29.3       211.438
         29.4       211.438
         29.5       211.438
         29.6       211.438
         29.7       211.438
         29.8       211.438
         29.9       211.438
           30       211.438
         30.1       211.438
         30.2       211.438
         30.3       211.438
         30.4       211.438
         30.5       211.438
         30.6       211.438
         30.7       211.438
         30.8       211.438
         30.9       211.438
           31       211.438
         31.1       211.438
         31.2       211.438
         31.3       211.438
         31.4       211.438
         31.5       211.438
         31.6       211.438
         31.7       211.438
         31.8       211.438
         31.9       211.438
           32       211.438
         32.1       211.438
         32.2       211.438
         32.3       211.438
         32.4       211.438
         32.5       211.438
         32.6       211.438
         32.7       211.438
         32.8       211.438
         32.9       211.438
           33       211.438
         33.1       211.438
         33.2       211.438
         33.3       211.438
         33.4       211.438
         33.5       211.438
         33.6       211.438
         33.7       211.438
         33.8       211.438
         33.9       211.438
           34       211.438
         34.1       211.438
         34.2       211.438
         34.3       211.438
         34.4       211.438
         34.5       211.438
         34.6       211.438
         34.7       211.438
         34.8       211.438
         34.9       211.438
           35       211.438
         35.1       211.438
         35.2       211.438
         35.3       211.438
         35.4       211.438
         35.5       211.438
         35.6       211.438
         35.7       211.438
         35.8       211.438
         35.9       211.438
           36       211.438
         36.1       211.438
         36.2       211.438
         36.3       211.438
         36.4       211.438
         36.5       211.438
         36.6       211.438
         36.7       211.438
         36.8       211.438
         36.9       211.438
           37       211.438
         37.1       211.438
         37.2       211.438
         37.3       211.438
         37.4       211.438
         37.5       211.438
         37.6       211.438
         37.7       211.438
         37.8       211.438
         37.9       211.438
           38       211.438
         38.1       211.438
         38.2       211.438
         38.3       211.438
         38.4       211.438
         38.5       211.438
         38.6       211.438
         38.7       211.438
         38.8       211.438
         38.9       211.438
           39       211.438
         39.1       211.438
         39.2       211.438
         39.3       211.438
         39.4       211.438
         39.5       211.438
         39.6       211.438
         39.7       211.438
         39.8       211.438
         39.9       211.438
           40       211.438
         40.1       211.438
         40.2       211.438
         40.3       211.438
         40.4       211.438
         40.5       211.438
         40.6       211.438
         40.7       211.438
         40.8       211.438
         40.9       211.438
           41       211.438
         41.1       211.438
         41.2       211.438
         41.3       211.438
         41.4       211.438
         41.5       211.438
         41.6       211.438
         41.7       211.438
         41.8       211.438
         41.9       211.438
           42       211.438
         42.1       211.438
         42.2       211.438
         42.3       211.438
         42.4       211.438
         42.5       211.438
         42.6       211.438
         42.7       211.438
         42.8       211.438
         42.9       211.438
           43       211.438
         43.1       211.438
         43.2       211.438
         43.3       211.438
         43.4       211.438
         43.5       211.438
         43.6       211.438
         43.7       211.438
         43.8       211.438
         43.9       211.438
           44       211.438
         44.1       211.438
         44.2       211.438
         44.3       211.438
         44.4       211.438
         44.5       211.438
         44.6       211.438
         44.7       211.438
         44.8       211.438
         44.9       211.438
           45       211.438
         45.1       211.438
         45.2       211.438
         45.3       211.438
         45.4       211.438
         45.5       211.438
         45.6       211.438
         45.7       211.438
         45.8       211.438
         45.9       211.438
           46       211.438
         46.1       211.438
         46.2       211.438
         46.3       211.438
         46.4       211.438
         46.5       211.438
         46.6       211.438
         46.7       211.438
         46.8       211.438
         46.9       211.438
           47       211.438
         47.1       211.438
         47.2       211.438
         47.3       211.438
         47.4       211.438
         47.5       211.438
         47.6       211.438
         47.7       211.438
         47.8       211.438
         47.9       211.438
           48       211.438
         48.1       211.438
         48.2       211.438
         48.3       211.438
         48.4       211.438
         48.5       211.438
         48.6       211.438
         48.7       211.438
         48.8       211.438
         48.9       211.438
           49       211.438
         49.1       211.438
         49.2       211.438
         49.3       211.438
         49.4       211.438
         49.5       211.438
         49.6       211.438
         49.7       211.438
         49.8       211.438
         49.9       211.438
           50       211.438
         50.1       211.438
         50.2       211.438
         50.3       211.438
         50.4       211.438
         50.5       211.438
         50.6       211.438
         50.7       211.438
         50.8       211.438
         50.9       211.438
           51       211.438
         51.1       211.438
         51.2       211.438
         51.3       211.438
         51.4       211.438
         51.5       211.438
         51.6       211.438
         51.7       211.438
         51.8       211.438
         51.9       211.438
           52       211.438
         52.1       211.438
         52.2       211.438
         52.3       211.438
         52.4       211.438
         52.5       211.438
         52.6       211.438
         52.7       211.438
         52.8       211.438
         52.9       211.438
           53       211.438
         53.1       211.438
         53.2       211.438
         53.3       211.438
         53.4       211.438
         53.5       211.438
         53.6       211.438
         53.7       211.438
         53.8       211.438
         53.9       211.438
           54       211.438
         54.1       211.438
         54.2       211.438
         54.3       211.438
         54.4       211.438
         54.5       211.438
         54.6       211.438
         54.7       211.438
         54.8       211.438
         54.9       211.438
           55       211.438
         55.1       211.438
         55.2       211.438
         55.3       211.438
         55.4       211.438
         55.5       211.438
         55.6       211.438
         55.7       211.438
         55.8       211.438
         55.9       211.438
           56       211.438
         56.1       211.438
         56.2       211.438
         56.3       211.438
         56.4       211.438
         56.5       211.438
         56.6       211.438
         56.7       211.438
         56.8       211.438
         56.9       211.438
           57       211.438
         57.1       211.438
         57.2       211.438
         57.3       211.438
         57.4       211.438
         57.5       211.438
         57.6       211.438
         57.7       211.438
         57.8       211.438
         57.9       211.438
           58       211.438
         58.1       211.438
         58.2       211.438
         58.3       211.438
         58.4       211.438
         58.5       211.438
         58.6       211.438
         58.7       211.438
         58.8       211.438
         58.9       211.438
           59       211.438
         59.1       211.438
         59.2       211.438
         59.3       211.438
         59.4       211.438
         59.5       211.438
         59.6       211.438
         59.7       211.438
         59.8       211.438
         59.9       211.438
           60       211.438
         60.1       211.438
         60.2       211.438
         60.3       211.438
         60.4       211.438
         60.5       211.438
         60.6       211.438
         60.7       211.438
         60.8       211.438
         60.9       211.438
           61       211.438
         61.1       211.438
         61.2       211.438
         61.3       211.438
         61.4       211.438
         61.5       211.438
         61.6       211.438
         61.7       211.438
         61.8       211.438
         61.9       211.438
           62       211.438
         62.1       211.438
         62.2       211.438
         62.3       211.438
         62.4       211.438
         62.5       211.438
         62.6       211.438
         62.7       211.438
         62.8       211.438
         62.9       211.438
           63       211.438
         63.1       211.438
         63.2       211.438
         63.3       211.438
         63.4       211.438
         63.5       211.438
         63.6       211.438
         63.7       211.438
         63.8       211.438
         63.9       211.438
           64       211.438
         64.1       211.438
         64.2       211.438
         64.3       211.438
         64.4       211.438
         64.5       211.438
         64.6       211.438
         64.7       211.438
         64.8       211.438
         64.9       211.438
           65       211.438
         65.1       211.438
         65.2       211.438
         65.3       211.438
         65.4       211.438
         65.5       211.438
         65.6       211.438
         65.7       211.438
         65.8       211.438
         65.9       211.438
           66       211.438
         66.1       211.438
         66.2       211.438
         66.3       211.438
         66.4       211.438
         66.5       211.438
         66.6       211.438
         66.7       211.438
         66.8       211.438
         66.9       211.438
           67       211.438
         67.1       211.438
         67.2       211.438
         67.3       211.438
         67.4       211.438
         67.5       211.438
         67.6       211.438
         67.7       211.438
         67.8       211.438
         67.9       211.438
           68       211.438
         68.1       211.438
         68.2       211.438
         68.3       211.438
         68.4       211.438
         68.5       211.438
         68.6       211.438
         68.7       211.438
         68.8       211.438
         68.9       211.438
           69       211.438
         69.1       211.438
         69.2       211.438
         69.3       211.438
         69.4       211.438
         69.5       211.438
         69.6       211.438
         69.7       211.438
         69.8       211.438
         69.9       211.438
           70       211.438
         70.1       211.438
         70.2       211.438
         70.3       211.438
         70.4       211.438
         70.5       211.438
         70.6       211.438
         70.7       211.438
         70.8       211.438
         70.9       211.438
           71       211.438
         71.1       211.438
         71.2       211.438
         71.3       211.438
         71.4       211.438
         71.5       211.438
         71.6       211.438
         71.7       211.438
         71.8       211.438
         71.9       211.438
           72       211.438
         72.1       211.438
         72.2       211.438
         72.3       211.438
         72.4       211.438
         72.5       211.438
         72.6       211.438
         72.7       211.438
         72.8       211.438
         72.9       211.438
           73       211.438
         73.1       211.438
         73.2       211.438
         73.3       211.438
         73.4       211.438
         73.5       211.438
         73.6       211.438
         73.7       211.438
         73.8       211.438
         73.9       211.438
           74       211.438
         74.1       211.438
         74.2       211.438
         74.3       211.438
         74.4       211.438
         74.5       211.438
         74.6       211.438
         74.7       211.438
         74.8       211.438
         74.9       211.438
           75       211.438
         75.1       211.438
         75.2       211.438
         75.3       211.438
         75.4       211.438
         75.5       211.438
         75.6       211.438
         75.7       211.438
         75.8       211.438
         75.9       211.438
           76       211.438
         76.1       211.438
         76.2       211.438
         76.3       211.438
         76.4       211.438
         76.5       211.438
         76.6       211.438
         76.7       211.438
         76.8       211.438
         76.9       211.438
           77       211.438
         77.1       211.438
         77.2       211.438
         77.3       211.438
         77.4       211.438
         77.5       211.438
         77.6       211.438
         77.7       211.438
         77.8       211.438
         77.9       211.438
           78       211.438
         78.1       211.438
         78.2       211.438
         78.3       211.438
         78.4       211.438
         78.5       211.438
         78.6       211.438
         78.7       211.438
         78.8       211.438
         78.9       211.438
           79       211.438
         79.1       211.438
         79.2       211.438
         79.3       211.438
         79.4       211.438
         79.5       211.438
         79.6       211.438
         79.7       211.438
         79.8       211.438
         79.9       211.438
           80       211.438
         80.1       211.438
         80.2       211.438
         80.3       211.438
         80.4       211.438
         80.5       211.438
         80.6       211.438
         80.7       211.438
         80.8       211.438
         80.9       211.438
           81       211.438
         81.1       211.438
         81.2       211.438
         81.3       211.438
         81.4       211.438
         81.5       211.438
         81.6       211.438
         81.7       211.438
         81.8       211.438
         81.9       211.438
           82       211.438
         82.1       211.438
         82.2       211.438
         82.3       211.438
         82.4       211.438
         82.5       211.438
         82.6       211.438
         82.7       211.438
         82.8       211.438
         82.9       211.438
           83       211.438
         83.1       211.438
         83.2       211.438
         83.3       211.438
         83.4       211.438
         83.5       211.438
         83.6       211.438
         83.7       211.438
         83.8       211.438
         83.9       211.438
           84       211.438
         84.1       211.438
         84.2       211.438
         84.3       211.438
         84.4       211.438
         84.5       211.438
         84.6       211.438
         84.7       211.438
         84.8       211.438
         84.9       211.438
           85       211.438
         85.1       211.438
         85.2       211.438
         85.3       211.438
         85.4       211.438
         85.5       211.438
         85.6       211.438
         85.7       211.438
         85.8       211.438
         85.9       211.438
           86       211.438
         86.1       211.438
         86.2       211.438
         86.3       211.438
         86.4       211.438
         86.5       211.438
         86.6       211.438
         86.7       211.438
         86.8       211.438
         86.9       211.438
           87       211.438
         87.1       211.438
         87.2       211.438
         87.3       211.438
         87.4       211.438
         87.5       211.438
         87.6       211.438
         87.7       211.438
         87.8       211.438
         87.9       211.438
           88       211.438
         88.1       211.438
         88.2       211.438
         88.3       211.438
         88.4       211.438
         88.5       211.438
         88.6       211.438
         88.7       211.438
         88.8       211.438
         88.9       211.438
           89       211.438
         89.1       211.438
         89.2       211.438
         89.3       211.438
         89.4       211.438
         89.5       211.438
         89.6       211.438
         89.7       211.438
         89.8       211.438
         89.9       211.438
           90       211.438
         90.1       211.438
         90.2       211.438
         90.3       211.438
         90.4       211.438
         90.5       211.438
         90.6       211.438
         90.7       211.438
         90.8       211.438
         90.9       211.438
           91       211.438
         91.1       211.438
         91.2       211.438
         91.3       211.438
         91.4       211.438
         91.5       211.438
         91.6       211.438
         91.7       211.438
         91.8       211.438
         91.9       211.438
           92       211.438
         92.1       211.438
         92.2       211.438
         92.3       211.438
         92.4       211.438
         92.5       211.438
         92.6       211.438
         92.7       211.438
         92.8       211.438
         92.9       211.438
           93       211.438
         93.1       211.438
         93.2       211.438
         93.3       211.438
         93.4       211.438
         93.5       211.438
         93.6       211.438
         93.7       211.438
         93.8       211.438
         93.9       211.438
           94       211.438
         94.1       211.438
         94.2       211.438
         94.3       211.438
         94.4       211.438
         94.5       211.438
         94.6       211.438
         94.7       211.438
         94.8       211.438
         94.9       211.438
           95       211.438
         95.1       211.438
         95.2       211.438
         95.3       211.438
         95.4       211.438
         95.5       211.438
         95.6       211.438
         95.7       211.438
         95.8       211.438
         95.9       211.438
           96       211.438
         96.1       211.438
         96.2       211.438
         96.3       211.438
         96.4       211.438
         96.5       211.438
         96.6       211.438
         96.7       211.438
         96.8       211.438
         96.9       211.438
           97       211.438
         97.1       211.438
         97.2       211.438
         97.3       211.438
         97.4       211.438
         97.5       211.438
         97.6       211.438
         97.7       211.438
         97.8       211.438
         97.9       211.438
           98       211.438
         98.1       211.438
         98.2       211.438
         98.3       211.438
         98.4       211.438
         98.5       211.438
         98.6       211.438
         98.7       211.438
         98.8       211.438
         98.9       211.438
           99       211.438
         99.1       211.438
         99.2       211.438
         99.3       211.438
         99.4       211.438
         99.5       211.438
         99.6       211.438
         99.7       211.438
         99.8       211.438
         99.9       211.438
          100       211.438
        100.1       211.438
        100.2       211.438
        100.3       211.438
        100.4       211.438
        100.5       211.438
        100.6       211.438
        100.7       211.438
        100.8       211.438
        100.9       211.438
          101       211.438
        101.1       211.438
        101.2       211.438
        101.3       211.438
        101.4       211.438
        101.5       211.438
        101.6       211.438
        101.7       211.438
        101.8       211.438
        101.9       211.438
          102       211.438
        102.1       211.438
        102.2       211.438
        102.3       211.438
        102.4       211.438
        102.5       211.438
        102.6       211.438
        102.7       211.438
        102.8       211.438
        102.9       211.438
          103       211.438
        103.1       211.438
        103.2       211.438
        103.3       211.438
        103.4       211.438
        103.5       211.438
        103.6       211.438
        103.7       211.438
        103.8       211.438
        103.9       211.438
          104       211.438
        104.1       211.438
        104.2       211.438
        104.3       211.438
        104.4       211.438
        104.5       211.438
        104.6       211.438
        104.7       211.438
        104.8       211.438
        104.9       211.438
          105       211.438
        105.1       211.438
        105.2       211.438
        105.3       211.438
        105.4       211.438
        105.5       211.438
        105.6       211.438
        105.7       211.438
        105.8       211.438
        105.9       211.438
          106       211.438
        106.1       211.438
        106.2       211.438
        106.3       211.438
        106.4       211.438
        106.5       211.438
        106.6       211.438
        106.7       211.438
        106.8       211.438