# Probe 0 (0.05 0.05 0.005)
#       Probe             0
#        Time
          0.1    0.00861322
          0.2    0.00861322
          0.3    0.00861322
          0.4    0.00861322
          0.5    0.00861322
          0.6    0.00861322
          0.7    0.00861322
          0.8    0.00861322
          0.9    0.00861322
            1    0.00861322
          1.1    0.00861322
          1.2    0.00861322
          1.3    0.00861322
          1.4    0.00861322
          1.5    0.00861322
          1.6    0.00861322
          1.7    0.00861322
          1.8    0.00861322
          1.9    0.00861322
            2    0.00861322
          2.1    0.00861322
          2.2    0.00861322
          2.3    0.00861322
          2.4    0.00861322
          2.5    0.00861322
          2.6    0.00861322
          2.7    0.00861322
          2.8    0.00861322
          2.9    0.00861322
            3    0.00861322
          3.1    0.00861322
          3.2    0.00861322
          3.3    0.00861322
          3.4    0.00861322
          3.5    0.00861322
          3.6    0.00861322
          3.7    0.00861322
          3.8    0.00861322
          3.9    0.00861322
            4    0.00861322
          4.1    0.00861322
          4.2    0.00861322
          4.3    0.00861322
          4.4    0.00861322
          4.5    0.00861322
          4.6    0.00861322
          4.7    0.00861322
          4.8    0.00861322
          4.9    0.00861322
            5    0.00861322
          5.1    0.00861322
          5.2    0.00861322
          5.3    0.00861322
          5.4    0.00861322
          5.5    0.00861322
          5.6    0.00861322
          5.7    0.00861322
          5.8    0.00861322
          5.9    0.00861322
            6    0.00861322
          6.1    0.00861322
          6.2    0.00861322
          6.3    0.00861322
          6.4    0.00861322
          6.5    0.00861322
          6.6    0.00861322
          6.7    0.00861322
          6.8    0.00861322
          6.9    0.00861322
            7    0.00861322
          7.1    0.00861322
          7.2    0.00861322
          7.3    0.00861322
          7.4    0.00861322
          7.5    0.00861322
          7.6    0.00861322
          7.7    0.00861322
          7.8    0.00861322
          7.9    0.00861322
            8    0.00861322
          8.1    0.00861322
          8.2    0.00861322
          8.3    0.00861322
          8.4    0.00861322
          8.5    0.00861322
          8.6    0.00861322
          8.7    0.00861322
          8.8    0.00861322
          8.9    0.00861322
            9    0.00861322
          9.1    0.00861322
          9.2    0.00861322
          9.3    0.00861322
          9.4    0.00861322
          9.5    0.00861322
          9.6    0.00861322
          9.7    0.00861322
          9.8    0.00861322
          9.9    0.00861322
           10    0.00861322
         10.1    0.00861322
         10.2    0.00861322
         10.3    0.00861322
         10.4    0.00861322
         10.5    0.00861322
         10.6    0.00861322
         10.7    0.00861322
         10.8    0.00861322
         10.9    0.00861322
           11    0.00861322
         11.1    0.00861322
         11.2    0.00861322
         11.3    0.00861322
         11.4    0.00861322
         11.5    0.00861322
         11.6    0.00861322
         11.7    0.00861322
         11.8    0.00861322
         11.9    0.00861322
           12    0.00861322
         12.1    0.00861322
         12.2    0.00861322
         12.3    0.00861322
         12.4    0.00861322
         12.5    0.00861322
         12.6    0.00861322
         12.7    0.00861322
         12.8    0.00861322
         12.9    0.00861322
           13    0.00861322
         13.1    0.00861322
         13.2    0.00861322
         13.3    0.00861322
         13.4    0.00861322
         13.5    0.00861322
         13.6    0.00861322
         13.7    0.00861322
         13.8    0.00861322
         13.9    0.00861322
           14    0.00861322
         14.1    0.00861322
         14.2    0.00861322
         14.3    0.00861322
         14.4    0.00861322
         14.5    0.00861322
         14.6    0.00861322
         14.7    0.00861322
         14.8    0.00861322
         14.9    0.00861322
           15    0.00861322
         15.1    0.00861322
         15.2    0.00861322
         15.3    0.00861322
         15.4    0.00861322
         15.5    0.00861322
         15.6    0.00861322
         15.7    0.00861322
         15.8    0.00861322
         15.9    0.00861322
           16    0.00861322
         16.1    0.00861322
         16.2    0.00861322
         16.3    0.00861322
         16.4    0.00861322
         16.5    0.00861322
         16.6    0.00861322
         16.7    0.00861322
         16.8    0.00861322
         16.9    0.00861322
           17    0.00861322
         17.1    0.00861322
         17.2    0.00861322
         17.3    0.00861322
         17.4    0.00861322
         17.5    0.00861322
         17.6    0.00861322
         17.7    0.00861322
         17.8    0.00861322
         17.9    0.00861322
           18    0.00861322
         18.1    0.00861322
         18.2    0.00861322
         18.3    0.00861322
         18.4    0.00861322
         18.5    0.00861322
         18.6    0.00861322
         18.7    0.00861322
         18.8    0.00861322
         18.9    0.00861322
           19    0.00861322
         19.1    0.00861322
         19.2    0.00861322
         19.3    0.00861322
         19.4    0.00861322
         19.5    0.00861322
         19.6    0.00861322
         19.7    0.00861322
         19.8    0.00861322
         19.9    0.00861322
           20    0.00861322
         20.1    0.00861322
         20.2    0.00861322
         20.3    0.00861322
         20.4    0.00861322
         20.5    0.00861322
         20.6    0.00861322
         20.7    0.00861322
         20.8    0.00861322
         20.9    0.00861322
           21    0.00861322
         21.1    0.00861322
         21.2    0.00861322
         21.3    0.00861322
         21.4    0.00861322
         21.5    0.00861322
         21.6    0.00861322
         21.7    0.00861322
         21.8    0.00861322
         21.9    0.00861322
           22    0.00861322
         22.1    0.00861322
         22.2    0.00861322
         22.3    0.00861322
         22.4    0.00861322
         22.5    0.00861322
         22.6    0.00861322
         22.7    0.00861322
         22.8    0.00861322
         22.9    0.00861322
           23    0.00861322
         23.1    0.00861322
         23.2    0.00861322
         23.3    0.00861322
         23.4    0.00861322
         23.5    0.00861322
         23.6    0.00861322
         23.7    0.00861322
         23.8    0.00861322
         23.9    0.00861322
           24    0.00861322
         24.1    0.00861322
         24.2    0.00861322
         24.3    0.00861322
         24.4    0.00861322
         24.5    0.00861322
         24.6    0.00861322
         24.7    0.00861322
         24.8    0.00861322
         24.9    0.00861322
           25    0.00861322
         25.1    0.00861322
         25.2    0.00861322
         25.3    0.00861322
         25.4    0.00861322
         25.5    0.00861322
         25.6    0.00861322
         25.7    0.00861322
         25.8    0.00861322
         25.9    0.00861322
           26    0.00861322
         26.1    0.00861322
         26.2    0.00861322
         26.3    0.00861322
         26.4    0.00861322
         26.5    0.00861322
         26.6    0.00861322
         26.7    0.00861322
         26.8    0.00861322
         26.9    0.00861322
           27    0.00861322
         27.1    0.00861322
         27.2    0.00861322
         27.3    0.00861322
         27.4    0.00861322
         27.5    0.00861322
         27.6    0.00861322
         27.7    0.00861322
         27.8    0.00861322
         27.9    0.00861322
           28    0.00861322
         28.1    0.00861322
         28.2    0.00861322
         28.3    0.00861322
         28.4    0.00861322
         28.5    0.00861322
         28.6    0.00861322
         28.7    0.00861322
         28.8    0.00861322
         28.9    0.00861322
           29    0.00861322
         29.1    0.00861322
         29.2    0.00861322
         29.3    0.00861322
         29.4    0.00861322
         29.5    0.00861322
         29.6    0.00861322
         29.7    0.00861322
         29.8    0.00861322
         29.9    0.00861322
           30    0.00861322
         30.1    0.00861322
         30.2    0.00861322
         30.3    0.00861322
         30.4    0.00861322
         30.5    0.00861322
         30.6    0.00861322
         30.7    0.00861322
         30.8    0.00861322
         30.9    0.00861322
           31    0.00861322
         31.1    0.00861322
         31.2    0.00861322
         31.3    0.00861322
         31.4    0.00861322
         31.5    0.00861322
         31.6    0.00861322
         31.7    0.00861322
         31.8    0.00861322
         31.9    0.00861322
           32    0.00861322
         32.1    0.00861322
         32.2    0.00861322
         32.3    0.00861322
         32.4    0.00861322
         32.5    0.00861322
         32.6    0.00861322
         32.7    0.00861322
         32.8    0.00861322
         32.9    0.00861322
           33    0.00861322
         33.1    0.00861322
         33.2    0.00861322
         33.3    0.00861322
         33.4    0.00861322
         33.5    0.00861322
         33.6    0.00861322
         33.7    0.00861322
         33.8    0.00861322
         33.9    0.00861322
           34    0.00861322
         34.1    0.00861322
         34.2    0.00861322
         34.3    0.00861322
         34.4    0.00861322
         34.5    0.00861322
         34.6    0.00861322
         34.7    0.00861322
         34.8    0.00861322
         34.9    0.00861322
           35    0.00861322
         35.1    0.00861322
         35.2    0.00861322
         35.3    0.00861322
         35.4    0.00861322
         35.5    0.00861322
         35.6    0.00861322
         35.7    0.00861322
         35.8    0.00861322
         35.9    0.00861322
           36    0.00861322
         36.1    0.00861322
         36.2    0.00861322
         36.3    0.00861322
         36.4    0.00861322
         36.5    0.00861322
         36.6    0.00861322
         36.7    0.00861322
         36.8    0.00861322
         36.9    0.00861322
           37    0.00861322
         37.1    0.00861322
         37.2    0.00861322
         37.3    0.00861322
         37.4    0.00861322
         37.5    0.00861322
         37.6    0.00861322
         37.7    0.00861322
         37.8    0.00861322
         37.9    0.00861322
           38    0.00861322
         38.1    0.00861322
         38.2    0.00861322
         38.3    0.00861322
         38.4    0.00861322
         38.5    0.00861322
         38.6    0.00861322
         38.7    0.00861322
         38.8    0.00861322
         38.9    0.00861322
           39    0.00861322
         39.1    0.00861322
         39.2    0.00861322
         39.3    0.00861322
         39.4    0.00861322
         39.5    0.00861322
         39.6    0.00861322
         39.7    0.00861322
         39.8    0.00861322
         39.9    0.00861322
           40    0.00861322
         40.1    0.00861322
         40.2    0.00861322
         40.3    0.00861322
         40.4    0.00861322
         40.5    0.00861322
         40.6    0.00861322
         40.7    0.00861322
         40.8    0.00861322
         40.9    0.00861322
           41    0.00861322
         41.1    0.00861322
         41.2    0.00861322
         41.3    0.00861322
         41.4    0.00861322
         41.5    0.00861322
         41.6    0.00861322
         41.7    0.00861322
         41.8    0.00861322
         41.9    0.00861322
           42    0.00861322
         42.1    0.00861322
         42.2    0.00861322
         42.3    0.00861322
         42.4    0.00861322
         42.5    0.00861322
         42.6    0.00861322
         42.7    0.00861322
         42.8    0.00861322
         42.9    0.00861322
           43    0.00861322
         43.1    0.00861322
         43.2    0.00861322
         43.3    0.00861322
         43.4    0.00861322
         43.5    0.00861322
         43.6    0.00861322
         43.7    0.00861322
         43.8    0.00861322
         43.9    0.00861322
           44    0.00861322
         44.1    0.00861322
         44.2    0.00861322
         44.3    0.00861322
         44.4    0.00861322
         44.5    0.00861322
         44.6    0.00861322
         44.7    0.00861322
         44.8    0.00861322
         44.9    0.00861322
           45    0.00861322
         45.1    0.00861322
         45.2    0.00861322
         45.3    0.00861322
         45.4    0.00861322
         45.5    0.00861322
         45.6    0.00861322
         45.7    0.00861322
         45.8    0.00861322
         45.9    0.00861322
           46    0.00861322
         46.1    0.00861322
         46.2    0.00861322
         46.3    0.00861322
         46.4    0.00861322
         46.5    0.00861322
         46.6    0.00861322
         46.7    0.00861322
         46.8    0.00861322
         46.9    0.00861322
           47    0.00861322
         47.1    0.00861322
         47.2    0.00861322
         47.3    0.00861322
         47.4    0.00861322
         47.5    0.00861322
         47.6    0.00861322
         47.7    0.00861322
         47.8    0.00861322
         47.9    0.00861322
           48    0.00861322
         48.1    0.00861322
         48.2    0.00861322
         48.3    0.00861322
         48.4    0.00861322
         48.5    0.00861322
         48.6    0.00861322
         48.7    0.00861322
         48.8    0.00861322
         48.9    0.00861322
           49    0.00861322
         49.1    0.00861322
         49.2    0.00861322
         49.3    0.00861322
         49.4    0.00861322
         49.5    0.00861322
         49.6    0.00861322
         49.7    0.00861322
         49.8    0.00861322
         49.9    0.00861322
           50    0.00861322
         50.1    0.00861322
         50.2    0.00861322
         50.3    0.00861322
         50.4    0.00861322
         50.5    0.00861322
         50.6    0.00861322
         50.7    0.00861322
         50.8    0.00861322
         50.9    0.00861322
           51    0.00861322
         51.1    0.00861322
         51.2    0.00861322
         51.3    0.00861322
         51.4    0.00861322
         51.5    0.00861322
         51.6    0.00861322
         51.7    0.00861322
         51.8    0.00861322
         51.9    0.00861322
           52    0.00861322
         52.1    0.00861322
         52.2    0.00861322
         52.3    0.00861322
         52.4    0.00861322
         52.5    0.00861322
         52.6    0.00861322
         52.7    0.00861322
         52.8    0.00861322
         52.9    0.00861322
           53    0.00861322
         53.1    0.00861322
         53.2    0.00861322
         53.3    0.00861322
         53.4    0.00861322
         53.5    0.00861322
         53.6    0.00861322
         53.7    0.00861322
         53.8    0.00861322
         53.9    0.00861322
           54    0.00861322
         54.1    0.00861322
         54.2    0.00861322
         54.3    0.00861322
         54.4    0.00861322
         54.5    0.00861322
         54.6    0.00861322
         54.7    0.00861322
         54.8    0.00861322
         54.9    0.00861322
           55    0.00861322
         55.1    0.00861322
         55.2    0.00861322
         55.3    0.00861322
         55.4    0.00861322
         55.5    0.00861322
         55.6    0.00861322
         55.7    0.00861322
         55.8    0.00861322
         55.9    0.00861322
           56    0.00861322
         56.1    0.00861322
         56.2    0.00861322
         56.3    0.00861322
         56.4    0.00861322
         56.5    0.00861322
         56.6    0.00861322
         56.7    0.00861322
         56.8    0.00861322
         56.9    0.00861322
           57    0.00861322
         57.1    0.00861322
         57.2    0.00861322
         57.3    0.00861322
         57.4    0.00861322
         57.5    0.00861322
         57.6    0.00861322
         57.7    0.00861322
         57.8    0.00861322
         57.9    0.00861322
           58    0.00861322
         58.1    0.00861322
         58.2    0.00861322
         58.3    0.00861322
         58.4    0.00861322
         58.5    0.00861322
         58.6    0.00861322
         58.7    0.00861322
         58.8    0.00861322
         58.9    0.00861322
           59    0.00861322
         59.1    0.00861322
         59.2    0.00861322
         59.3    0.00861322
         59.4    0.00861322
         59.5    0.00861322
         59.6    0.00861322
         59.7    0.00861322
         59.8    0.00861322
         59.9    0.00861322
           60    0.00861322
         60.1    0.00861322
         60.2    0.00861322
         60.3    0.00861322
         60.4    0.00861322
         60.5    0.00861322
         60.6    0.00861322
         60.7    0.00861322
         60.8    0.00861322
         60.9    0.00861322
           61    0.00861322
         61.1    0.00861322
         61.2    0.00861322
         61.3    0.00861322
         61.4    0.00861322
         61.5    0.00861322
         61.6    0.00861322
         61.7    0.00861322
         61.8    0.00861322
         61.9    0.00861322
           62    0.00861322
         62.1    0.00861322
         62.2    0.00861322
         62.3    0.00861322
         62.4    0.00861322
         62.5    0.00861322
         62.6    0.00861322
         62.7    0.00861322
         62.8    0.00861322
         62.9    0.00861322
           63    0.00861322
         63.1    0.00861322
         63.2    0.00861322
         63.3    0.00861322
         63.4    0.00861322
         63.5    0.00861322
         63.6    0.00861322
         63.7    0.00861322
         63.8    0.00861322
         63.9    0.00861322
           64    0.00861322
         64.1    0.00861322
         64.2    0.00861322
         64.3    0.00861322
         64.4    0.00861322
         64.5    0.00861322
         64.6    0.00861322
         64.7    0.00861322
         64.8    0.00861322
         64.9    0.00861322
           65    0.00861322
         65.1    0.00861322
         65.2    0.00861322
         65.3    0.00861322
         65.4    0.00861322
         65.5    0.00861322
         65.6    0.00861322
         65.7    0.00861322
         65.8    0.00861322
         65.9    0.00861322
           66    0.00861322
         66.1    0.00861322
         66.2    0.00861322
         66.3    0.00861322
         66.4    0.00861322
         66.5    0.00861322
         66.6    0.00861322
         66.7    0.00861322
         66.8    0.00861322
         66.9    0.00861322
           67    0.00861322
         67.1    0.00861322
         67.2    0.00861322
         67.3    0.00861322
         67.4    0.00861322
         67.5    0.00861322
         67.6    0.00861322
         67.7    0.00861322
         67.8    0.00861322
         67.9    0.00861322
           68    0.00861322
         68.1    0.00861322
         68.2    0.00861322
         68.3    0.00861322
         68.4    0.00861322
         68.5    0.00861322
         68.6    0.00861322
         68.7    0.00861322
         68.8    0.00861322
         68.9    0.00861322
           69    0.00861322
         69.1    0.00861322
         69.2    0.00861322
         69.3    0.00861322
         69.4    0.00861322
         69.5    0.00861322
         69.6    0.00861322
         69.7    0.00861322
         69.8    0.00861322
         69.9    0.00861322
           70    0.00861322
         70.1    0.00861322
         70.2    0.00861322
         70.3    0.00861322
         70.4    0.00861322
         70.5    0.00861322
         70.6    0.00861322
         70.7    0.00861322
         70.8    0.00861322
         70.9    0.00861322
           71    0.00861322
         71.1    0.00861322
         71.2    0.00861322
         71.3    0.00861322
         71.4    0.00861322
         71.5    0.00861322
         71.6    0.00861322
         71.7    0.00861322
         71.8    0.00861322
         71.9    0.00861322
           72    0.00861322
         72.1    0.00861322
         72.2    0.00861322
         72.3    0.00861322
         72.4    0.00861322
         72.5    0.00861322
         72.6    0.00861322
         72.7    0.00861322
         72.8    0.00861322
         72.9    0.00861322
           73    0.00861322
         73.1    0.00861322
         73.2    0.00861322
         73.3    0.00861322
         73.4    0.00861322
         73.5    0.00861322
         73.6    0.00861322
         73.7    0.00861322
         73.8    0.00861322
         73.9    0.00861322
           74    0.00861322
         74.1    0.00861322
         74.2    0.00861322
         74.3    0.00861322
         74.4    0.00861322
         74.5    0.00861322
         74.6    0.00861322
         74.7    0.00861322
         74.8    0.00861322
         74.9    0.00861322
           75    0.00861322
         75.1    0.00861322
         75.2    0.00861322
         75.3    0.00861322
         75.4    0.00861322
         75.5    0.00861322
         75.6    0.00861322
         75.7    0.00861322
         75.8    0.00861322
         75.9    0.00861322
           76    0.00861322
         76.1    0.00861322
         76.2    0.00861322
         76.3    0.00861322
         76.4    0.00861322
         76.5    0.00861322
         76.6    0.00861322
         76.7    0.00861322
         76.8    0.00861322
         76.9    0.00861322
           77    0.00861322
         77.1    0.00861322
         77.2    0.00861322
         77.3    0.00861322
         77.4    0.00861322
         77.5    0.00861322
         77.6    0.00861322
         77.7    0.00861322
         77.8    0.00861322
         77.9    0.00861322
           78    0.00861322
         78.1    0.00861322
         78.2    0.00861322
         78.3    0.00861322
         78.4    0.00861322
         78.5    0.00861322
         78.6    0.00861322
         78.7    0.00861322
         78.8    0.00861322
         78.9    0.00861322
           79    0.00861322
         79.1    0.00861322
         79.2    0.00861322
         79.3    0.00861322
         79.4    0.00861322
         79.5    0.00861322
         79.6    0.00861322
         79.7    0.00861322
         79.8    0.00861322
         79.9    0.00861322
           80    0.00861322
         80.1    0.00861322
         80.2    0.00861322
         80.3    0.00861322
         80.4    0.00861322
         80.5    0.00861322
         80.6    0.00861322
         80.7    0.00861322
         80.8    0.00861322
         80.9    0.00861322
           81    0.00861322
         81.1    0.00861322
         81.2    0.00861322
         81.3    0.00861322
         81.4    0.00861322
         81.5    0.00861322
         81.6    0.00861322
         81.7    0.00861322
         81.8    0.00861322
         81.9    0.00861322
           82    0.00861322
         82.1    0.00861322
         82.2    0.00861322
         82.3    0.00861322
         82.4    0.00861322
         82.5    0.00861322
         82.6    0.00861322
         82.7    0.00861322
         82.8    0.00861322
         82.9    0.00861322
           83    0.00861322
         83.1    0.00861322
         83.2    0.00861322
         83.3    0.00861322
         83.4    0.00861322
         83.5    0.00861322
         83.6    0.00861322
         83.7    0.00861322
         83.8    0.00861322
         83.9    0.00861322
           84    0.00861322
         84.1    0.00861322
         84.2    0.00861322
         84.3    0.00861322
         84.4    0.00861322
         84.5    0.00861322
         84.6    0.00861322
         84.7    0.00861322
         84.8    0.00861322
         84.9    0.00861322
           85    0.00861322
         85.1    0.00861322
         85.2    0.00861322
         85.3    0.00861322
         85.4    0.00861322
         85.5    0.00861322
         85.6    0.00861322
         85.7    0.00861322
         85.8    0.00861322
         85.9    0.00861322
           86    0.00861322
         86.1    0.00861322
         86.2    0.00861322
         86.3    0.00861322
         86.4    0.00861322
         86.5    0.00861322
         86.6    0.00861322
         86.7    0.00861322
         86.8    0.00861322
         86.9    0.00861322
           87    0.00861322
         87.1    0.00861322
         87.2    0.00861322
         87.3    0.00861322
         87.4    0.00861322
         87.5    0.00861322
         87.6    0.00861322
         87.7    0.00861322
         87.8    0.00861322
         87.9    0.00861322
           88    0.00861322
         88.1    0.00861322
         88.2    0.00861322
         88.3    0.00861322
         88.4    0.00861322
         88.5    0.00861322
         88.6    0.00861322
         88.7    0.00861322
         88.8    0.00861322
         88.9    0.00861322
           89    0.00861322
         89.1    0.00861322
         89.2    0.00861322
         89.3    0.00861322
         89.4    0.00861322
         89.5    0.00861322
         89.6    0.00861322
         89.7    0.00861322
         89.8    0.00861322
         89.9    0.00861322
           90    0.00861322
         90.1    0.00861322
         90.2    0.00861322
         90.3    0.00861322
         90.4    0.00861322
         90.5    0.00861322
         90.6    0.00861322
         90.7    0.00861322
         90.8    0.00861322
         90.9    0.00861322
           91    0.00861322
         91.1    0.00861322
         91.2    0.00861322
         91.3    0.00861322
         91.4    0.00861322
         91.5    0.00861322
         91.6    0.00861322
         91.7    0.00861322
         91.8    0.00861322
         91.9    0.00861322
           92    0.00861322
         92.1    0.00861322
         92.2    0.00861322
         92.3    0.00861322
         92.4    0.00861322
         92.5    0.00861322
         92.6    0.00861322
         92.7    0.00861322
         92.8    0.00861322
         92.9    0.00861322
           93    0.00861322
         93.1    0.00861322
         93.2    0.00861322
         93.3    0.00861322
         93.4    0.00861322
         93.5    0.00861322
         93.6    0.00861322
         93.7    0.00861322
         93.8    0.00861322
         93.9    0.00861322
           94    0.00861322
         94.1    0.00861322
         94.2    0.00861322
         94.3    0.00861322
         94.4    0.00861322
         94.5    0.00861322
         94.6    0.00861322
         94.7    0.00861322
         94.8    0.00861322
         94.9    0.00861322
           95    0.00861322
         95.1    0.00861322
         95.2    0.00861322
         95.3    0.00861322
         95.4    0.00861322
         95.5    0.00861322
         95.6    0.00861322
         95.7    0.00861322
         95.8    0.00861322
         95.9    0.00861322
           96    0.00861322
         96.1    0.00861322
         96.2    0.00861322
         96.3    0.00861322
         96.4    0.00861322
         96.5    0.00861322
         96.6    0.00861322
         96.7    0.00861322
         96.8    0.00861322
         96.9    0.00861322
           97    0.00861322
         97.1    0.00861322
         97.2    0.00861322
         97.3    0.00861322
         97.4    0.00861322
         97.5    0.00861322
         97.6    0.00861322
         97.7    0.00861322
         97.8    0.00861322
         97.9    0.00861322
           98    0.00861322
         98.1    0.00861322
         98.2    0.00861322
         98.3    0.00861322
         98.4    0.00861322
         98.5    0.00861322
         98.6    0.00861322
         98.7    0.00861322
         98.8    0.00861322
         98.9    0.00861322
           99    0.00861322
         99.1    0.00861322
         99.2    0.00861322
         99.3    0.00861322
         99.4    0.00861322
         99.5    0.00861322
         99.6    0.00861322
         99.7    0.00861322
         99.8    0.00861322
         99.9    0.00861322
          100    0.00861322
        100.1    0.00861322
        100.2    0.00861322
        100.3    0.00861322
        100.4    0.00861322
        100.5    0.00861322
        100.6    0.00861322
        100.7    0.00861322
        100.8    0.00861322
        100.9    0.00861322
          101    0.00861322
        101.1    0.00861322
        101.2    0.00861322
        101.3    0.00861322
        101.4    0.00861322
        101.5    0.00861322
        101.6    0.00861322
        101.7    0.00861322
        101.8    0.00861322
        101.9    0.00861322
          102    0.00861322
        102.1    0.00861322
        102.2    0.00861322
        102.3    0.00861322
        102.4    0.00861322
        102.5    0.00861322
        102.6    0.00861322
        102.7    0.00861322
        102.8    0.00861322
        102.9    0.00861322
          103    0.00861322
        103.1    0.00861322
        103.2    0.00861322
        103.3    0.00861322
        103.4    0.00861322
        103.5    0.00861322
        103.6    0.00861322
        103.7    0.00861322
        103.8    0.00861322
        103.9    0.00861322
          104    0.00861322
        104.1    0.00861322
        104.2    0.00861322
        104.3    0.00861322
        104.4    0.00861322
        104.5    0.00861322
        104.6    0.00861322
        104.7    0.00861322
        104.8    0.00861322
        104.9    0.00861322
          105    0.00861322
        105.1    0.00861322
        105.2    0.00861322
        105.3    0.00861322
        105.4    0.00861322
        105.5    0.00861322
        105.6    0.00861322
        105.7    0.00861322
        105.8    0.00861322
        105.9    0.00861322
          106    0.00861322
        106.1    0.00861322
        106.2    0.00861322
        106.3    0.00861322
        106.4    0.00861322
        106.5    0.00861322
        106.6    0.00861322
        106.7    0.00861322
        106.8    0.00861322