# Probe 0 (0.05 0.05 0.005)
#       Probe             0
#        Time
          0.1       212.438
          0.2       212.438
          0.3       212.438
          0.4       212.438
          0.5       212.438
          0.6       212.438
          0.7       212.438
          0.8       212.438
          0.9       212.438
            1       212.438
          1.1       212.438
          1.2       212.438
          1.3       212.438
          1.4       212.438
          1.5       212.438
          1.6       212.438
          1.7       212.438
          1.8       212.438
          1.9       212.438
            2       212.438
          2.1       212.438
          2.2       212.438
          2.3       212.438
          2.4       212.438
          2.5       212.438
          2.6       212.438
          2.7       212.438
          2.8       212.438
          2.9       212.438
            3       212.438
          3.1       212.438
          3.2       212.438
          3.3       212.438
          3.4       212.438
          3.5       212.438
          3.6       212.438
          3.7       212.438
          3.8       212.438
          3.9       212.438
            4       212.438
          4.1       212.438
          4.2       212.438
          4.3       212.438
          4.4       212.438
          4.5       212.438
          4.6       212.438
          4.7       212.438
          4.8       212.438
          4.9       212.438
            5       212.438
          5.1       212.438
          5.2       212.438
          5.3       212.438
          5.4       212.438
          5.5       212.438
          5.6       212.438
          5.7       212.438
          5.8       212.438
          5.9       212.438
            6       212.438
          6.1       212.438
          6.2       212.438
          6.3       212.438
          6.4       212.438
          6.5       212.438
          6.6       212.438
          6.7       212.438
          6.8       212.438
          6.9       212.438
            7       212.438
          7.1       212.438
          7.2       212.438
          7.3       212.438
          7.4       212.438
          7.5       212.438
          7.6       212.438
          7.7       212.438
          7.8       212.438
          7.9       212.438
            8       212.438
          8.1       212.438
          8.2       212.438
          8.3       212.438
          8.4       212.438
          8.5       212.438
          8.6       212.438
          8.7       212.438
          8.8       212.438
          8.9       212.438
            9       212.438
          9.1       212.438
          9.2       212.438
          9.3       212.438
          9.4       212.438
          9.5       212.438
          9.6       212.438
          9.7       212.438
          9.8       212.438
          9.9       212.438
           10       212.438
         10.1       212.438
         10.2       212.438
         10.3       212.438
         10.4       212.438
         10.5       212.438
         10.6       212.438
         10.7       212.438
         10.8       212.438
         10.9       212.438
           11       212.438
         11.1       212.438
         11.2       212.438
         11.3       212.438
         11.4       212.438
         11.5       212.438
         11.6       212.438
         11.7       212.438
         11.8       212.438
         11.9       212.438
           12       212.438
         12.1       212.438
         12.2       212.438
         12.3       212.438
         12.4       212.438
         12.5       212.438
         12.6       212.438
         12.7       212.438
         12.8       212.438
         12.9       212.438
           13       212.438
         13.1       212.438
         13.2       212.438
         13.3       212.438
         13.4       212.438
         13.5       212.438
         13.6       212.438
         13.7       212.438
         13.8       212.438
         13.9       212.438
           14       212.438
         14.1       212.438
         14.2       212.438
         14.3       212.438
         14.4       212.438
         14.5       212.438
         14.6       212.438
         14.7       212.438
         14.8       212.438
         14.9       212.438
           15       212.438
         15.1       212.438
         15.2       212.438
         15.3       212.438
         15.4       212.438
         15.5       212.438
         15.6       212.438
         15.7       212.438
         15.8       212.438
         15.9       212.438
           16       212.438
         16.1       212.438
         16.2       212.438
         16.3       212.438
         16.4       212.438
         16.5       212.438
         16.6       212.438
         16.7       212.438
         16.8       212.438
         16.9       212.438
           17       212.438
         17.1       212.438
         17.2       212.438
         17.3       212.438
         17.4       212.438
         17.5       212.438
         17.6       212.438
         17.7       212.438
         17.8       212.438
         17.9       212.438
           18       212.438
         18.1       212.438
         18.2       212.438
         18.3       212.438
         18.4       212.438
         18.5       212.438
         18.6       212.438
         18.7       212.438
         18.8       212.438
         18.9       212.438
           19       212.438
         19.1       212.438
         19.2       212.438
         19.3       212.438
         19.4       212.438
         19.5       212.438
         19.6       212.438
         19.7       212.438
         19.8       212.438
         19.9       212.438
           20       212.438
         20.1       212.438
         20.2       212.438
         20.3       212.438
         20.4       212.438
         20.5       212.438
         20.6       212.438
         20.7       212.438
         20.8       212.438
         20.9       212.438
           21       212.438
         21.1       212.438
         21.2       212.438
         21.3       212.438
         21.4       212.438
         21.5       212.438
         21.6       212.438
         21.7       212.438
         21.8       212.438
         21.9       212.438
           22       212.438
         22.1       212.438
         22.2       212.438
         22.3       212.438
         22.4       212.438
         22.5       212.438
         22.6       212.438
         22.7       212.438
         22.8       212.438
         22.9       212.438
           23       212.438
         23.1       212.438
         23.2       212.438
         23.3       212.438
         23.4       212.438
         23.5       212.438
         23.6       212.438
         23.7       212.438
         23.8       212.438
         23.9       212.438
           24       212.438
         24.1       212.438
         24.2       212.438
         24.3       212.438
         24.4       212.438
         24.5       212.438
         24.6       212.438
         24.7       212.438
         24.8       212.438
         24.9       212.438
           25       212.438
         25.1       212.438
         25.2       212.438
         25.3       212.438
         25.4       212.438
         25.5       212.438
         25.6       212.438
         25.7       212.438
         25.8       212.438
         25.9       212.438
           26       212.438
         26.1       212.438
         26.2       212.438
         26.3       212.438
         26.4       212.438
         26.5       212.438
         26.6       212.438
         26.7       212.438
         26.8       212.438
         26.9       212.438
           27       212.438
         27.1       212.438
         27.2       212.438
         27.3       212.438
         27.4       212.438
         27.5       212.438
         27.6       212.438
         27.7       212.438
         27.8       212.438
         27.9       212.438
           28       212.438
         28.1       212.438
         28.2       212.438
         28.3       212.438
         28.4       212.438
         28.5       212.438
         28.6       212.438
         28.7       212.438
         28.8       212.438
         28.9       212.438
           29       212.438
         29.1       212.438
         29.2       212.438
         29.3       212.438
         29.4       212.438
         29.5       212.438
         29.6       212.438
         29.7       212.438
         29.8       212.438
         29.9       212.438
           30       212.438
         30.1       212.438
         30.2       212.438
         30.3       212.438
         30.4       212.438
         30.5       212.438
         30.6       212.438
         30.7       212.438
         30.8       212.438
         30.9       212.438
           31       212.438
         31.1       212.438
         31.2       212.438
         31.3       212.438
         31.4       212.438
         31.5       212.438
         31.6       212.438
         31.7       212.438
         31.8       212.438
         31.9       212.438
           32       212.438
         32.1       212.438
         32.2       212.438
         32.3       212.438
         32.4       212.438
         32.5       212.438
         32.6       212.438
         32.7       212.438
         32.8       212.438
         32.9       212.438
           33       212.438
         33.1       212.438
         33.2       212.438
         33.3       212.438
         33.4       212.438
         33.5       212.438
         33.6       212.438
         33.7       212.438
         33.8       212.438
         33.9       212.438
           34       212.438
         34.1       212.438
         34.2       212.438
         34.3       212.438
         34.4       212.438
         34.5       212.438
         34.6       212.438
         34.7       212.438
         34.8       212.438
         34.9       212.438
           35       212.438
         35.1       212.438
         35.2       212.438
         35.3       212.438
         35.4       212.438
         35.5       212.438
         35.6       212.438
         35.7       212.438
         35.8       212.438
         35.9       212.438
           36       212.438
         36.1       212.438
         36.2       212.438
         36.3       212.438
         36.4       212.438
         36.5       212.438
         36.6       212.438
         36.7       212.438
         36.8       212.438
         36.9       212.438
           37       212.438
         37.1       212.438
         37.2       212.438
         37.3       212.438
         37.4       212.438
         37.5       212.438
         37.6       212.438
         37.7       212.438
         37.8       212.438
         37.9       212.438
           38       212.438
         38.1       212.438
         38.2       212.438
         38.3       212.438
         38.4       212.438
         38.5       212.438
         38.6       212.438
         38.7       212.438
         38.8       212.438
         38.9       212.438
           39       212.438
         39.1       212.438
         39.2       212.438
         39.3       212.438
         39.4       212.438
         39.5       212.438
         39.6       212.438
         39.7       212.438
         39.8       212.438
         39.9       212.438
           40       212.438
         40.1       212.438
         40.2       212.438
         40.3       212.438
         40.4       212.438
         40.5       212.438
         40.6       212.438
         40.7       212.438
         40.8       212.438
         40.9       212.438
           41       212.438
         41.1       212.438
         41.2       212.438
         41.3       212.438
         41.4       212.438
         41.5       212.438
         41.6       212.438
         41.7       212.438
         41.8       212.438
         41.9       212.438
           42       212.438
         42.1       212.438
         42.2       212.438
         42.3       212.438
         42.4       212.438
         42.5       212.438
         42.6       212.438
         42.7       212.438
         42.8       212.438
         42.9       212.438
           43       212.438
         43.1       212.438
         43.2       212.438
         43.3       212.438
         43.4       212.438
         43.5       212.438
         43.6       212.438
         43.7       212.438
         43.8       212.438
         43.9       212.438
           44       212.438
         44.1       212.438
         44.2       212.438
         44.3       212.438
         44.4       212.438
         44.5       212.438
         44.6       212.438
         44.7       212.438
         44.8       212.438
         44.9       212.438
           45       212.438
         45.1       212.438
         45.2       212.438
         45.3       212.438
         45.4       212.438
         45.5       212.438
         45.6       212.438
         45.7       212.438
         45.8       212.438
         45.9       212.438
           46       212.438
         46.1       212.438
         46.2       212.438
         46.3       212.438
         46.4       212.438
         46.5       212.438
         46.6       212.438
         46.7       212.438
         46.8       212.438
         46.9       212.438
           47       212.438
         47.1       212.438
         47.2       212.438
         47.3       212.438
         47.4       212.438
         47.5       212.438
         47.6       212.438
         47.7       212.438
         47.8       212.438
         47.9       212.438
           48       212.438
         48.1       212.438
         48.2       212.438
         48.3       212.438
         48.4       212.438
         48.5       212.438
         48.6       212.438
         48.7       212.438
         48.8       212.438
         48.9       212.438
           49       212.438
         49.1       212.438
         49.2       212.438
         49.3       212.438
         49.4       212.438
         49.5       212.438
         49.6       212.438
         49.7       212.438
         49.8       212.438
         49.9       212.438
           50       212.438
         50.1       212.438
         50.2       212.438
         50.3       212.438
         50.4       212.438
         50.5       212.438
         50.6       212.438
         50.7       212.438
         50.8       212.438
         50.9       212.438
           51       212.438
         51.1       212.438
         51.2       212.438
         51.3       212.438
         51.4       212.438
         51.5       212.438
         51.6       212.438
         51.7       212.438
         51.8       212.438
         51.9       212.438
           52       212.438
         52.1       212.438
         52.2       212.438
         52.3       212.438
         52.4       212.438
         52.5       212.438
         52.6       212.438
         52.7       212.438
         52.8       212.438
         52.9       212.438
           53       212.438
         53.1       212.438
         53.2       212.438
         53.3       212.438
         53.4       212.438
         53.5       212.438
         53.6       212.438
         53.7       212.438
         53.8       212.438
         53.9       212.438
           54       212.438
         54.1       212.438
         54.2       212.438
         54.3       212.438
         54.4       212.438
         54.5       212.438
         54.6       212.438
         54.7       212.438
         54.8       212.438
         54.9       212.438
           55       212.438
         55.1       212.438
         55.2       212.438
         55.3       212.438
         55.4       212.438
         55.5       212.438
         55.6       212.438
         55.7       212.438
         55.8       212.438
         55.9       212.438
           56       212.438
         56.1       212.438
         56.2       212.438
         56.3       212.438
         56.4       212.438
         56.5       212.438
         56.6       212.438
         56.7       212.438
         56.8       212.438
         56.9       212.438
           57       212.438
         57.1       212.438
         57.2       212.438
         57.3       212.438
         57.4       212.438
         57.5       212.438
         57.6       212.438
         57.7       212.438
         57.8       212.438
         57.9       212.438
           58       212.438
         58.1       212.438
         58.2       212.438
         58.3       212.438
         58.4       212.438
         58.5       212.438
         58.6       212.438
         58.7       212.438
         58.8       212.438
         58.9       212.438
           59       212.438
         59.1       212.438
         59.2       212.438
         59.3       212.438
         59.4       212.438
         59.5       212.438
         59.6       212.438
         59.7       212.438
         59.8       212.438
         59.9       212.438
           60       212.438
         60.1       212.438
         60.2       212.438
         60.3       212.438
         60.4       212.438
         60.5       212.438
         60.6       212.438
         60.7       212.438
         60.8       212.438
         60.9       212.438
           61       212.438
         61.1       212.438
         61.2       212.438
         61.3       212.438
         61.4       212.438
         61.5       212.438
         61.6       212.438
         61.7       212.438
         61.8       212.438
         61.9       212.438
           62       212.438
         62.1       212.438
         62.2       212.438
         62.3       212.438
         62.4       212.438
         62.5       212.438
         62.6       212.438
         62.7       212.438
         62.8       212.438
         62.9       212.438
           63       212.438
         63.1       212.438
         63.2       212.438
         63.3       212.438
         63.4       212.438
         63.5       212.438
         63.6       212.438
         63.7       212.438
         63.8       212.438
         63.9       212.438
           64       212.438
         64.1       212.438
         64.2       212.438
         64.3       212.438
         64.4       212.438
         64.5       212.438
         64.6       212.438
         64.7       212.438
         64.8       212.438
         64.9       212.438
           65       212.438
         65.1       212.438
         65.2       212.438
         65.3       212.438
         65.4       212.438
         65.5       212.438
         65.6       212.438
         65.7       212.438
         65.8       212.438
         65.9       212.438
           66       212.438
         66.1       212.438
         66.2       212.438
         66.3       212.438
         66.4       212.438
         66.5       212.438
         66.6       212.438
         66.7       212.438
         66.8       212.438
         66.9       212.438
           67       212.438
         67.1       212.438
         67.2       212.438
         67.3       212.438
         67.4       212.438
         67.5       212.438
         67.6       212.438
         67.7       212.438
         67.8       212.438
         67.9       212.438
           68       212.438
         68.1       212.438
         68.2       212.438
         68.3       212.438
         68.4       212.438
         68.5       212.438
         68.6       212.438
         68.7       212.438
         68.8       212.438
         68.9       212.438
           69       212.438
         69.1       212.438
         69.2       212.438
         69.3       212.438
         69.4       212.438
         69.5       212.438
         69.6       212.438
         69.7       212.438
         69.8       212.438
         69.9       212.438
           70       212.438
         70.1       212.438
         70.2       212.438
         70.3       212.438
         70.4       212.438
         70.5       212.438
         70.6       212.438
         70.7       212.438
         70.8       212.438
         70.9       212.438
           71       212.438
         71.1       212.438
         71.2       212.438
         71.3       212.438
         71.4       212.438
         71.5       212.438
         71.6       212.438
         71.7       212.438
         71.8       212.438
         71.9       212.438
           72       212.438
         72.1       212.438
         72.2       212.438
         72.3       212.438
         72.4       212.438
         72.5       212.438
         72.6       212.438
         72.7       212.438
         72.8       212.438
         72.9       212.438
           73       212.438
         73.1       212.438
         73.2       212.438
         73.3       212.438
         73.4       212.438
         73.5       212.438
         73.6       212.438
         73.7       212.438
         73.8       212.438
         73.9       212.438
           74       212.438
         74.1       212.438
         74.2       212.438
         74.3       212.438
         74.4       212.438
         74.5       212.438
         74.6       212.438
         74.7       212.438
         74.8       212.438
         74.9       212.438
           75       212.438
         75.1       212.438
         75.2       212.438
         75.3       212.438
         75.4       212.438
         75.5       212.438
         75.6       212.438
         75.7       212.438
         75.8       212.438
         75.9       212.438
           76       212.438
         76.1       212.438
         76.2       212.438
         76.3       212.438
         76.4       212.438
         76.5       212.438
         76.6       212.438
         76.7       212.438
         76.8       212.438
         76.9       212.438
           77       212.438
         77.1       212.438
         77.2       212.438
         77.3       212.438
         77.4       212.438
         77.5       212.438
         77.6       212.438
         77.7       212.438
         77.8       212.438
         77.9       212.438
           78       212.438
         78.1       212.438
         78.2       212.438
         78.3       212.438
         78.4       212.438
         78.5       212.438
         78.6       212.438
         78.7       212.438
         78.8       212.438
         78.9       212.438
           79       212.438
         79.1       212.438
         79.2       212.438
         79.3       212.438
         79.4       212.438
         79.5       212.438
         79.6       212.438
         79.7       212.438
         79.8       212.438
         79.9       212.438
           80       212.438
         80.1       212.438
         80.2       212.438
         80.3       212.438
         80.4       212.438
         80.5       212.438
         80.6       212.438
         80.7       212.438
         80.8       212.438
         80.9       212.438
           81       212.438
         81.1       212.438
         81.2       212.438
         81.3       212.438
         81.4       212.438
         81.5       212.438
         81.6       212.438
         81.7       212.438
         81.8       212.438
         81.9       212.438
           82       212.438
         82.1       212.438
         82.2       212.438
         82.3       212.438
         82.4       212.438
         82.5       212.438
         82.6       212.438
         82.7       212.438
         82.8       212.438
         82.9       212.438
           83       212.438
         83.1       212.438
         83.2       212.438
         83.3       212.438
         83.4       212.438
         83.5       212.438
         83.6       212.438
         83.7       212.438
         83.8       212.438
         83.9       212.438
           84       212.438
         84.1       212.438
         84.2       212.438
         84.3       212.438
         84.4       212.438
         84.5       212.438
         84.6       212.438
         84.7       212.438
         84.8       212.438
         84.9       212.438
           85       212.438
         85.1       212.438
         85.2       212.438
         85.3       212.438
         85.4       212.438
         85.5       212.438
         85.6       212.438
         85.7       212.438
         85.8       212.438
         85.9       212.438
           86       212.438
         86.1       212.438
         86.2       212.438
         86.3       212.438
         86.4       212.438
         86.5       212.438
         86.6       212.438
         86.7       212.438
         86.8       212.438
         86.9       212.438
           87       212.438
         87.1       212.438
         87.2       212.438
         87.3       212.438
         87.4       212.438
         87.5       212.438
         87.6       212.438
         87.7       212.438
         87.8       212.438
         87.9       212.438
           88       212.438
         88.1       212.438
         88.2       212.438
         88.3       212.438
         88.4       212.438
         88.5       212.438
         88.6       212.438
         88.7       212.438
         88.8       212.438
         88.9       212.438
           89       212.438
         89.1       212.438
         89.2       212.438
         89.3       212.438
         89.4       212.438
         89.5       212.438
         89.6       212.438
         89.7       212.438
         89.8       212.438
         89.9       212.438
           90       212.438
         90.1       212.438
         90.2       212.438
         90.3       212.438
         90.4       212.438
         90.5       212.438
         90.6       212.438
         90.7       212.438
         90.8       212.438
         90.9       212.438
           91       212.438
         91.1       212.438
         91.2       212.438
         91.3       212.438
         91.4       212.438
         91.5       212.438
         91.6       212.438
         91.7       212.438
         91.8       212.438
         91.9       212.438
           92       212.438
         92.1       212.438
         92.2       212.438
         92.3       212.438
         92.4       212.438
         92.5       212.438
         92.6       212.438
         92.7       212.438
         92.8       212.438
         92.9       212.438
           93       212.438
         93.1       212.438
         93.2       212.438
         93.3       212.438
         93.4       212.438
         93.5       212.438
         93.6       212.438
         93.7       212.438
         93.8       212.438
         93.9       212.438
           94       212.438
         94.1       212.438
         94.2       212.438
         94.3       212.438
         94.4       212.438
         94.5       212.438
         94.6       212.438
         94.7       212.438
         94.8       212.438
         94.9       212.438
           95       212.438
         95.1       212.438
         95.2       212.438
         95.3       212.438
         95.4       212.438
         95.5       212.438
         95.6       212.438
         95.7       212.438
         95.8       212.438
         95.9       212.438
           96       212.438
         96.1       212.438
         96.2       212.438
         96.3       212.438
         96.4       212.438
         96.5       212.438
         96.6       212.438
         96.7       212.438
         96.8       212.438
         96.9       212.438
           97       212.438
         97.1       212.438
         97.2       212.438
         97.3       212.438
         97.4       212.438
         97.5       212.438
         97.6       212.438
         97.7       212.438
         97.8       212.438
         97.9       212.438
           98       212.438
         98.1       212.438
         98.2       212.438
         98.3       212.438
         98.4       212.438
         98.5       212.438
         98.6       212.438
         98.7       212.438
         98.8       212.438
         98.9       212.438
           99       212.438
         99.1       212.438
         99.2       212.438
         99.3       212.438
         99.4       212.438
         99.5       212.438
         99.6       212.438
         99.7       212.438
         99.8       212.438
         99.9       212.438
          100       212.438
        100.1       212.438
        100.2       212.438
        100.3       212.438
        100.4       212.438
        100.5       212.438
        100.6       212.438
        100.7       212.438
        100.8       212.438
        100.9       212.438
          101       212.438
        101.1       212.438
        101.2       212.438
        101.3       212.438
        101.4       212.438
        101.5       212.438
        101.6       212.438
        101.7       212.438
        101.8       212.438
        101.9       212.438
          102       212.438
        102.1       212.438
        102.2       212.438
        102.3       212.438
        102.4       212.438
        102.5       212.438
        102.6       212.438
        102.7       212.438
        102.8       212.438
        102.9       212.438
          103       212.438
        103.1       212.438
        103.2       212.438
        103.3       212.438
        103.4       212.438
        103.5       212.438
        103.6       212.438
        103.7       212.438
        103.8       212.438
        103.9       212.438
          104       212.438
        104.1       212.438
        104.2       212.438
        104.3       212.438
        104.4       212.438
        104.5       212.438
        104.6       212.438
        104.7       212.438
        104.8       212.438
        104.9       212.438
          105       212.438
        105.1       212.438
        105.2       212.438
        105.3       212.438
        105.4       212.438
        105.5       212.438
        105.6       212.438
        105.7       212.438
        105.8       212.438
        105.9       212.438
          106       212.438
        106.1       212.438
        106.2       212.438
        106.3       212.438
        106.4       212.438
        106.5       212.438
        106.6       212.438
        106.7       212.438
        106.8       212.438