0.000000e+00 	0.040000 
1.250000e+02 	0.040004 
2.500000e+02 	0.039952 
3.750000e+02 	0.039720 
5.000000e+02 	0.039151 
5.889911e+02 	0.038418 
6.779822e+02 	0.037305 
7.669733e+02 	0.035761 
8.559644e+02 	0.033771 
9.449555e+02 	0.031410 
1.033947e+03 	0.028750 
1.122938e+03 	0.025885 
1.211929e+03 	0.023020 
1.295350e+03 	0.020501 
1.378771e+03 	0.018181 
1.462193e+03 	0.016098 
1.545614e+03 	0.014238 
1.615103e+03 	0.012864 
1.684592e+03 	0.011660 
1.754081e+03 	0.010600 
1.823571e+03 	0.009667 
1.912439e+03 	0.008630 
2.001308e+03 	0.007739 
2.090176e+03 	0.006969 
2.179045e+03 	0.006300 
2.286340e+03 	0.005603 
2.393635e+03 	0.005007 
2.500930e+03 	0.004497 
2.608226e+03 	0.004055 
2.721194e+03 	0.003651 
2.834162e+03 	0.003300 
2.947130e+03 	0.002995 
3.060098e+03 	0.002728 
3.185098e+03 	0.002469 
3.310098e+03 	0.002242 
3.435098e+03 	0.002044 
3.560098e+03 	0.001870 
3.685098e+03 	0.001715 
3.810098e+03 	0.001578 
3.935098e+03 	0.001455 
4.060098e+03 	0.001346 
4.185098e+03 	0.001247 
4.310098e+03 	0.001159 
4.435098e+03 	0.001079 
4.560098e+03 	0.001007 
4.670073e+03 	0.000948 
4.780049e+03 	0.000895 
4.890024e+03 	0.000845 
5.000000e+03 	0.000800 
