# Probe 0 (0.05 0.05 0.005)
#       Probe             0
#        Time
          0.1        6.9817
          0.2        6.9817
          0.3        6.9817
          0.4        6.9817
          0.5        6.9817
          0.6        6.9817
          0.7        6.9817
          0.8        6.9817
          0.9        6.9817
            1        6.9817
          1.1        6.9817
          1.2        6.9817
          1.3        6.9817
          1.4        6.9817
          1.5        6.9817
          1.6        6.9817
          1.7        6.9817
          1.8        6.9817
          1.9        6.9817
            2        6.9817
          2.1        6.9817
          2.2        6.9817
          2.3        6.9817
          2.4        6.9817
          2.5        6.9817
          2.6        6.9817
          2.7        6.9817
          2.8        6.9817
          2.9        6.9817
            3        6.9817
          3.1        6.9817
          3.2        6.9817
          3.3        6.9817
          3.4        6.9817
          3.5        6.9817
          3.6        6.9817
          3.7        6.9817
          3.8        6.9817
          3.9        6.9817
            4        6.9817
          4.1        6.9817
          4.2        6.9817
          4.3        6.9817
          4.4        6.9817
          4.5        6.9817
          4.6        6.9817
          4.7        6.9817
          4.8        6.9817
          4.9        6.9817
            5        6.9817
          5.1        6.9817
          5.2        6.9817
          5.3        6.9817
          5.4        6.9817
          5.5        6.9817
          5.6        6.9817
          5.7        6.9817
          5.8        6.9817
          5.9        6.9817
            6        6.9817
          6.1        6.9817
          6.2        6.9817
          6.3        6.9817
          6.4        6.9817
          6.5        6.9817
          6.6        6.9817
          6.7        6.9817
          6.8        6.9817
          6.9        6.9817
            7        6.9817
          7.1        6.9817
          7.2        6.9817
          7.3        6.9817
          7.4        6.9817
          7.5        6.9817
          7.6        6.9817
          7.7        6.9817
          7.8        6.9817
          7.9        6.9817
            8        6.9817
          8.1        6.9817
          8.2        6.9817
          8.3        6.9817
          8.4        6.9817
          8.5        6.9817
          8.6        6.9817
          8.7        6.9817
          8.8        6.9817
          8.9        6.9817
            9        6.9817
          9.1        6.9817
          9.2        6.9817
          9.3        6.9817
          9.4        6.9817
          9.5        6.9817
          9.6        6.9817
          9.7        6.9817
          9.8        6.9817
          9.9        6.9817
           10        6.9817
         10.1        6.9817
         10.2        6.9817
         10.3        6.9817
         10.4        6.9817
         10.5        6.9817
         10.6        6.9817
         10.7        6.9817
         10.8        6.9817
         10.9        6.9817
           11        6.9817
         11.1        6.9817
         11.2        6.9817
         11.3        6.9817
         11.4        6.9817
         11.5        6.9817
         11.6        6.9817
         11.7        6.9817
         11.8        6.9817
         11.9        6.9817
           12        6.9817
         12.1        6.9817
         12.2        6.9817
         12.3        6.9817
         12.4        6.9817
         12.5        6.9817
         12.6        6.9817
         12.7        6.9817
         12.8        6.9817
         12.9        6.9817
           13        6.9817
         13.1        6.9817
         13.2        6.9817
         13.3        6.9817
         13.4        6.9817
         13.5        6.9817
         13.6        6.9817
         13.7        6.9817
         13.8        6.9817
         13.9        6.9817
           14        6.9817
         14.1        6.9817
         14.2        6.9817
         14.3        6.9817
         14.4        6.9817
         14.5        6.9817
         14.6        6.9817
         14.7        6.9817
         14.8        6.9817
         14.9        6.9817
           15        6.9817
         15.1        6.9817
         15.2        6.9817
         15.3        6.9817
         15.4        6.9817
         15.5        6.9817
         15.6        6.9817
         15.7        6.9817
         15.8        6.9817
         15.9        6.9817
           16        6.9817
         16.1        6.9817
         16.2        6.9817
         16.3        6.9817
         16.4        6.9817
         16.5        6.9817
         16.6        6.9817
         16.7        6.9817
         16.8        6.9817
         16.9        6.9817
           17        6.9817
         17.1        6.9817
         17.2        6.9817
         17.3        6.9817
         17.4        6.9817
         17.5        6.9817
         17.6        6.9817
         17.7        6.9817
         17.8        6.9817
         17.9        6.9817
           18        6.9817
         18.1        6.9817
         18.2        6.9817
         18.3        6.9817
         18.4        6.9817
         18.5        6.9817
         18.6        6.9817
         18.7        6.9817
         18.8        6.9817
         18.9        6.9817
           19        6.9817
         19.1        6.9817
         19.2        6.9817
         19.3        6.9817
         19.4        6.9817
         19.5        6.9817
         19.6        6.9817
         19.7        6.9817
         19.8        6.9817
         19.9        6.9817
           20        6.9817
         20.1        6.9817
         20.2        6.9817
         20.3        6.9817
         20.4        6.9817
         20.5        6.9817
         20.6        6.9817
         20.7        6.9817
         20.8        6.9817
         20.9        6.9817
           21        6.9817
         21.1        6.9817
         21.2        6.9817
         21.3        6.9817
         21.4        6.9817
         21.5        6.9817
         21.6        6.9817
         21.7        6.9817
         21.8        6.9817
         21.9        6.9817
           22        6.9817
         22.1        6.9817
         22.2        6.9817
         22.3        6.9817
         22.4        6.9817
         22.5        6.9817
         22.6        6.9817
         22.7        6.9817
         22.8        6.9817
         22.9        6.9817
           23        6.9817
         23.1        6.9817
         23.2        6.9817
         23.3        6.9817
         23.4        6.9817
         23.5        6.9817
         23.6        6.9817
         23.7        6.9817
         23.8        6.9817
         23.9        6.9817
           24        6.9817
         24.1        6.9817
         24.2        6.9817
         24.3        6.9817
         24.4        6.9817
         24.5        6.9817
         24.6        6.9817
         24.7        6.9817
         24.8        6.9817
         24.9        6.9817
           25        6.9817
         25.1        6.9817
         25.2        6.9817
         25.3        6.9817
         25.4        6.9817
         25.5        6.9817
         25.6        6.9817
         25.7        6.9817
         25.8        6.9817
         25.9        6.9817
           26        6.9817
         26.1        6.9817
         26.2        6.9817
         26.3        6.9817
         26.4        6.9817
         26.5        6.9817
         26.6        6.9817
         26.7        6.9817
         26.8        6.9817
         26.9        6.9817
           27        6.9817
         27.1        6.9817
         27.2        6.9817
         27.3        6.9817
         27.4        6.9817
         27.5        6.9817
         27.6        6.9817
         27.7        6.9817
         27.8        6.9817
         27.9        6.9817
           28        6.9817
         28.1        6.9817
         28.2        6.9817
         28.3        6.9817
         28.4        6.9817
         28.5        6.9817
         28.6        6.9817
         28.7        6.9817
         28.8        6.9817
         28.9        6.9817
           29        6.9817
         29.1        6.9817
         29.2        6.9817
         29.3        6.9817
         29.4        6.9817
         29.5        6.9817
         29.6        6.9817
         29.7        6.9817
         29.8        6.9817
         29.9        6.9817
           30        6.9817
         30.1        6.9817
         30.2        6.9817
         30.3        6.9817
         30.4        6.9817
         30.5        6.9817
         30.6        6.9817
         30.7        6.9817
         30.8        6.9817
         30.9        6.9817
           31        6.9817
         31.1        6.9817
         31.2        6.9817
         31.3        6.9817
         31.4        6.9817
         31.5        6.9817
         31.6        6.9817
         31.7        6.9817
         31.8        6.9817
         31.9        6.9817
           32        6.9817
         32.1        6.9817
         32.2        6.9817
         32.3        6.9817
         32.4        6.9817
         32.5        6.9817
         32.6        6.9817
         32.7        6.9817
         32.8        6.9817
         32.9        6.9817
           33        6.9817
         33.1        6.9817
         33.2        6.9817
         33.3        6.9817
         33.4        6.9817
         33.5        6.9817
         33.6        6.9817
         33.7        6.9817
         33.8        6.9817
         33.9        6.9817
           34        6.9817
         34.1        6.9817
         34.2        6.9817
         34.3        6.9817
         34.4        6.9817
         34.5        6.9817
         34.6        6.9817
         34.7        6.9817
         34.8        6.9817
         34.9        6.9817
           35        6.9817
         35.1        6.9817
         35.2        6.9817
         35.3        6.9817
         35.4        6.9817
         35.5        6.9817
         35.6        6.9817
         35.7        6.9817
         35.8        6.9817
         35.9        6.9817
           36        6.9817
         36.1        6.9817
         36.2        6.9817
         36.3        6.9817
         36.4        6.9817
         36.5        6.9817
         36.6        6.9817
         36.7        6.9817
         36.8        6.9817
         36.9        6.9817
           37        6.9817
         37.1        6.9817
         37.2        6.9817
         37.3        6.9817
         37.4        6.9817
         37.5        6.9817
         37.6        6.9817
         37.7        6.9817
         37.8        6.9817
         37.9        6.9817
           38        6.9817
         38.1        6.9817
         38.2        6.9817
         38.3        6.9817
         38.4        6.9817
         38.5        6.9817
         38.6        6.9817
         38.7        6.9817
         38.8        6.9817
         38.9        6.9817
           39        6.9817
         39.1        6.9817
         39.2        6.9817
         39.3        6.9817
         39.4        6.9817
         39.5        6.9817
         39.6        6.9817
         39.7        6.9817
         39.8        6.9817
         39.9        6.9817
           40        6.9817
         40.1        6.9817
         40.2        6.9817
         40.3        6.9817
         40.4        6.9817
         40.5        6.9817
         40.6        6.9817
         40.7        6.9817
         40.8        6.9817
         40.9        6.9817
           41        6.9817
         41.1        6.9817
         41.2        6.9817
         41.3        6.9817
         41.4        6.9817
         41.5        6.9817
         41.6        6.9817
         41.7        6.9817
         41.8        6.9817
         41.9        6.9817
           42        6.9817
         42.1        6.9817
         42.2        6.9817
         42.3        6.9817
         42.4        6.9817
         42.5        6.9817
         42.6        6.9817
         42.7        6.9817
         42.8        6.9817
         42.9        6.9817
           43        6.9817
         43.1        6.9817
         43.2        6.9817
         43.3        6.9817
         43.4        6.9817
         43.5        6.9817
         43.6        6.9817
         43.7        6.9817
         43.8        6.9817
         43.9        6.9817
           44        6.9817
         44.1        6.9817
         44.2        6.9817
         44.3        6.9817
         44.4        6.9817
         44.5        6.9817
         44.6        6.9817
         44.7        6.9817
         44.8        6.9817
         44.9        6.9817
           45        6.9817
         45.1        6.9817
         45.2        6.9817
         45.3        6.9817
         45.4        6.9817
         45.5        6.9817
         45.6        6.9817
         45.7        6.9817
         45.8        6.9817
         45.9        6.9817
           46        6.9817
         46.1        6.9817
         46.2        6.9817
         46.3        6.9817
         46.4        6.9817
         46.5        6.9817
         46.6        6.9817
         46.7        6.9817
         46.8        6.9817
         46.9        6.9817
           47        6.9817
         47.1        6.9817
         47.2        6.9817
         47.3        6.9817
         47.4        6.9817
         47.5        6.9817
         47.6        6.9817
         47.7        6.9817
         47.8        6.9817
         47.9        6.9817
           48        6.9817
         48.1        6.9817
         48.2        6.9817
         48.3        6.9817
         48.4        6.9817
         48.5        6.9817
         48.6        6.9817
         48.7        6.9817
         48.8        6.9817
         48.9        6.9817
           49        6.9817
         49.1        6.9817
         49.2        6.9817
         49.3        6.9817
         49.4        6.9817
         49.5        6.9817
         49.6        6.9817
         49.7        6.9817
         49.8        6.9817
         49.9        6.9817
           50        6.9817
         50.1        6.9817
         50.2        6.9817
         50.3        6.9817
         50.4        6.9817
         50.5        6.9817
         50.6        6.9817
         50.7        6.9817
         50.8        6.9817
         50.9        6.9817
           51        6.9817
         51.1        6.9817
         51.2        6.9817
         51.3        6.9817
         51.4        6.9817
         51.5        6.9817
         51.6        6.9817
         51.7        6.9817
         51.8        6.9817
         51.9        6.9817
           52        6.9817
         52.1        6.9817
         52.2        6.9817
         52.3        6.9817
         52.4        6.9817
         52.5        6.9817
         52.6        6.9817
         52.7        6.9817
         52.8        6.9817
         52.9        6.9817
           53        6.9817
         53.1        6.9817
         53.2        6.9817
         53.3        6.9817
         53.4        6.9817
         53.5        6.9817
         53.6        6.9817
         53.7        6.9817
         53.8        6.9817
         53.9        6.9817
           54        6.9817
         54.1        6.9817
         54.2        6.9817
         54.3        6.9817
         54.4        6.9817
         54.5        6.9817
         54.6        6.9817
         54.7        6.9817
         54.8        6.9817
         54.9        6.9817
           55        6.9817
         55.1        6.9817
         55.2        6.9817
         55.3        6.9817
         55.4        6.9817
         55.5        6.9817
         55.6        6.9817
         55.7        6.9817
         55.8        6.9817
         55.9        6.9817
           56        6.9817
         56.1        6.9817
         56.2        6.9817
         56.3        6.9817
         56.4        6.9817
         56.5        6.9817
         56.6        6.9817
         56.7        6.9817
         56.8        6.9817
         56.9        6.9817
           57        6.9817
         57.1        6.9817
         57.2        6.9817
         57.3        6.9817
         57.4        6.9817
         57.5        6.9817
         57.6        6.9817
         57.7        6.9817
         57.8        6.9817
         57.9        6.9817
           58        6.9817
         58.1        6.9817
         58.2        6.9817
         58.3        6.9817
         58.4        6.9817
         58.5        6.9817
         58.6        6.9817
         58.7        6.9817
         58.8        6.9817
         58.9        6.9817
           59        6.9817
         59.1        6.9817
         59.2        6.9817
         59.3        6.9817
         59.4        6.9817
         59.5        6.9817
         59.6        6.9817
         59.7        6.9817
         59.8        6.9817
         59.9        6.9817
           60        6.9817
         60.1        6.9817
         60.2        6.9817
         60.3        6.9817
         60.4        6.9817
         60.5        6.9817
         60.6        6.9817
         60.7        6.9817
         60.8        6.9817
         60.9        6.9817
           61        6.9817
         61.1        6.9817
         61.2        6.9817
         61.3        6.9817
         61.4        6.9817
         61.5        6.9817
         61.6        6.9817
         61.7        6.9817
         61.8        6.9817
         61.9        6.9817
           62        6.9817
         62.1        6.9817
         62.2        6.9817
         62.3        6.9817
         62.4        6.9817
         62.5        6.9817
         62.6        6.9817
         62.7        6.9817
         62.8        6.9817
         62.9        6.9817
           63        6.9817
         63.1        6.9817
         63.2        6.9817
         63.3        6.9817
         63.4        6.9817
         63.5        6.9817
         63.6        6.9817
         63.7        6.9817
         63.8        6.9817
         63.9        6.9817
           64        6.9817
         64.1        6.9817
         64.2        6.9817
         64.3        6.9817
         64.4        6.9817
         64.5        6.9817
         64.6        6.9817
         64.7        6.9817
         64.8        6.9817
         64.9        6.9817
           65        6.9817
         65.1        6.9817
         65.2        6.9817
         65.3        6.9817
         65.4        6.9817
         65.5        6.9817
         65.6        6.9817
         65.7        6.9817
         65.8        6.9817
         65.9        6.9817
           66        6.9817
         66.1        6.9817
         66.2        6.9817
         66.3        6.9817
         66.4        6.9817
         66.5        6.9817
         66.6        6.9817
         66.7        6.9817
         66.8        6.9817
         66.9        6.9817
           67        6.9817
         67.1        6.9817
         67.2        6.9817
         67.3        6.9817
         67.4        6.9817
         67.5        6.9817
         67.6        6.9817
         67.7        6.9817
         67.8        6.9817
         67.9        6.9817
           68        6.9817
         68.1        6.9817
         68.2        6.9817
         68.3        6.9817
         68.4        6.9817
         68.5        6.9817
         68.6        6.9817
         68.7        6.9817
         68.8        6.9817
         68.9        6.9817
           69        6.9817
         69.1        6.9817
         69.2        6.9817
         69.3        6.9817
         69.4        6.9817
         69.5        6.9817
         69.6        6.9817
         69.7        6.9817
         69.8        6.9817
         69.9        6.9817
           70        6.9817
         70.1        6.9817
         70.2        6.9817
         70.3        6.9817
         70.4        6.9817
         70.5        6.9817
         70.6        6.9817
         70.7        6.9817
         70.8        6.9817
         70.9        6.9817
           71        6.9817
         71.1        6.9817
         71.2        6.9817
         71.3        6.9817
         71.4        6.9817
         71.5        6.9817
         71.6        6.9817
         71.7        6.9817
         71.8        6.9817
         71.9        6.9817
           72        6.9817
         72.1        6.9817
         72.2        6.9817
         72.3        6.9817
         72.4        6.9817
         72.5        6.9817
         72.6        6.9817
         72.7        6.9817
         72.8        6.9817
         72.9        6.9817
           73        6.9817
         73.1        6.9817
         73.2        6.9817
         73.3        6.9817
         73.4        6.9817
         73.5        6.9817
         73.6        6.9817
         73.7        6.9817
         73.8        6.9817
         73.9        6.9817
           74        6.9817
         74.1        6.9817
         74.2        6.9817
         74.3        6.9817
         74.4        6.9817
         74.5        6.9817
         74.6        6.9817
         74.7        6.9817
         74.8        6.9817
         74.9        6.9817
           75        6.9817
         75.1        6.9817
         75.2        6.9817
         75.3        6.9817
         75.4        6.9817
         75.5        6.9817
         75.6        6.9817
         75.7        6.9817
         75.8        6.9817
         75.9        6.9817
           76        6.9817
         76.1        6.9817
         76.2        6.9817
         76.3        6.9817
         76.4        6.9817
         76.5        6.9817
         76.6        6.9817
         76.7        6.9817
         76.8        6.9817
         76.9        6.9817
           77        6.9817
         77.1        6.9817
         77.2        6.9817
         77.3        6.9817
         77.4        6.9817
         77.5        6.9817
         77.6        6.9817
         77.7        6.9817
         77.8        6.9817
         77.9        6.9817
           78        6.9817
         78.1        6.9817
         78.2        6.9817
         78.3        6.9817
         78.4        6.9817
         78.5        6.9817
         78.6        6.9817
         78.7        6.9817
         78.8        6.9817
         78.9        6.9817
           79        6.9817
         79.1        6.9817
         79.2        6.9817
         79.3        6.9817
         79.4        6.9817
         79.5        6.9817
         79.6        6.9817
         79.7        6.9817
         79.8        6.9817
         79.9        6.9817
           80        6.9817
         80.1        6.9817
         80.2        6.9817
         80.3        6.9817
         80.4        6.9817
         80.5        6.9817
         80.6        6.9817
         80.7        6.9817
         80.8        6.9817
         80.9        6.9817
           81        6.9817
         81.1        6.9817
         81.2        6.9817
         81.3        6.9817
         81.4        6.9817
         81.5        6.9817
         81.6        6.9817
         81.7        6.9817
         81.8        6.9817
         81.9        6.9817
           82        6.9817
         82.1        6.9817
         82.2        6.9817
         82.3        6.9817
         82.4        6.9817
         82.5        6.9817
         82.6        6.9817
         82.7        6.9817
         82.8        6.9817
         82.9        6.9817
           83        6.9817
         83.1        6.9817
         83.2        6.9817
         83.3        6.9817
         83.4        6.9817
         83.5        6.9817
         83.6        6.9817
         83.7        6.9817
         83.8        6.9817
         83.9        6.9817
           84        6.9817
         84.1        6.9817
         84.2        6.9817
         84.3        6.9817
         84.4        6.9817
         84.5        6.9817
         84.6        6.9817
         84.7        6.9817
         84.8        6.9817
         84.9        6.9817
           85        6.9817
         85.1        6.9817
         85.2        6.9817
         85.3        6.9817
         85.4        6.9817
         85.5        6.9817
         85.6        6.9817
         85.7        6.9817
         85.8        6.9817
         85.9        6.9817
           86        6.9817
         86.1        6.9817
         86.2        6.9817
         86.3        6.9817
         86.4        6.9817
         86.5        6.9817
         86.6        6.9817
         86.7        6.9817
         86.8        6.9817
         86.9        6.9817
           87        6.9817
         87.1        6.9817
         87.2        6.9817
         87.3        6.9817
         87.4        6.9817
         87.5        6.9817
         87.6        6.9817
         87.7        6.9817
         87.8        6.9817
         87.9        6.9817
           88        6.9817
         88.1        6.9817
         88.2        6.9817
         88.3        6.9817
         88.4        6.9817
         88.5        6.9817
         88.6        6.9817
         88.7        6.9817
         88.8        6.9817
         88.9        6.9817
           89        6.9817
         89.1        6.9817
         89.2        6.9817
         89.3        6.9817
         89.4        6.9817
         89.5        6.9817
         89.6        6.9817
         89.7        6.9817
         89.8        6.9817
         89.9        6.9817
           90        6.9817
         90.1        6.9817
         90.2        6.9817
         90.3        6.9817
         90.4        6.9817
         90.5        6.9817
         90.6        6.9817
         90.7        6.9817
         90.8        6.9817
         90.9        6.9817
           91        6.9817
         91.1        6.9817
         91.2        6.9817
         91.3        6.9817
         91.4        6.9817
         91.5        6.9817
         91.6        6.9817
         91.7        6.9817
         91.8        6.9817
         91.9        6.9817
           92        6.9817
         92.1        6.9817
         92.2        6.9817
         92.3        6.9817
         92.4        6.9817
         92.5        6.9817
         92.6        6.9817
         92.7        6.9817
         92.8        6.9817
         92.9        6.9817
           93        6.9817
         93.1        6.9817
         93.2        6.9817
         93.3        6.9817
         93.4        6.9817
         93.5        6.9817
         93.6        6.9817
         93.7        6.9817
         93.8        6.9817
         93.9        6.9817
           94        6.9817
         94.1        6.9817
         94.2        6.9817
         94.3        6.9817
         94.4        6.9817
         94.5        6.9817
         94.6        6.9817
         94.7        6.9817
         94.8        6.9817
         94.9        6.9817
           95        6.9817
         95.1        6.9817
         95.2        6.9817
         95.3        6.9817
         95.4        6.9817
         95.5        6.9817
         95.6        6.9817
         95.7        6.9817
         95.8        6.9817
         95.9        6.9817
           96        6.9817
         96.1        6.9817
         96.2        6.9817
         96.3        6.9817
         96.4        6.9817
         96.5        6.9817
         96.6        6.9817
         96.7        6.9817
         96.8        6.9817
         96.9        6.9817
           97        6.9817
         97.1        6.9817
         97.2        6.9817
         97.3        6.9817
         97.4        6.9817
         97.5        6.9817
         97.6        6.9817
         97.7        6.9817
         97.8        6.9817
         97.9        6.9817
           98        6.9817
         98.1        6.9817
         98.2        6.9817
         98.3        6.9817
         98.4        6.9817
         98.5        6.9817
         98.6        6.9817
         98.7        6.9817
         98.8        6.9817
         98.9        6.9817
           99        6.9817
         99.1        6.9817
         99.2        6.9817
         99.3        6.9817
         99.4        6.9817
         99.5        6.9817
         99.6        6.9817
         99.7        6.9817
         99.8        6.9817
         99.9        6.9817
          100        6.9817
        100.1        6.9817
        100.2        6.9817
        100.3        6.9817
        100.4        6.9817
        100.5        6.9817
        100.6        6.9817
        100.7        6.9817
        100.8        6.9817
        100.9        6.9817
          101        6.9817
        101.1        6.9817
        101.2        6.9817
        101.3        6.9817
        101.4        6.9817
        101.5        6.9817
        101.6        6.9817
        101.7        6.9817
        101.8        6.9817
        101.9        6.9817
          102        6.9817
        102.1        6.9817
        102.2        6.9817
        102.3        6.9817
        102.4        6.9817
        102.5        6.9817
        102.6        6.9817
        102.7        6.9817
        102.8        6.9817
        102.9        6.9817
          103        6.9817
        103.1        6.9817
        103.2        6.9817
        103.3        6.9817
        103.4        6.9817
        103.5        6.9817
        103.6        6.9817
        103.7        6.9817
        103.8        6.9817
        103.9        6.9817
          104        6.9817
        104.1        6.9817
        104.2        6.9817
        104.3        6.9817
        104.4        6.9817
        104.5        6.9817
        104.6        6.9817
        104.7        6.9817
        104.8        6.9817
        104.9        6.9817
          105        6.9817
        105.1        6.9817
        105.2        6.9817
        105.3        6.9817
        105.4        6.9817
        105.5        6.9817
        105.6        6.9817
        105.7        6.9817
        105.8        6.9817
        105.9        6.9817
          106        6.9817
        106.1        6.9817
        106.2        6.9817
        106.3        6.9817
        106.4        6.9817
        106.5        6.9817
        106.6        6.9817
        106.7        6.9817
        106.8        6.9817