# Probe 0 (0.05 0.05 0.005)
#       Probe             0
#        Time
          0.1   9.58732e+06
          0.2   9.58732e+06
          0.3   9.58732e+06
          0.4   9.58732e+06
          0.5   9.58732e+06
          0.6   9.58732e+06
          0.7   9.58732e+06
          0.8   9.58732e+06
          0.9   9.58732e+06
            1   9.58732e+06
          1.1   9.58732e+06
          1.2   9.58732e+06
          1.3   9.58732e+06
          1.4   9.58732e+06
          1.5   9.58732e+06
          1.6   9.58732e+06
          1.7   9.58732e+06
          1.8   9.58732e+06
          1.9   9.58732e+06
            2   9.58732e+06
          2.1   9.58732e+06
          2.2   9.58732e+06
          2.3   9.58732e+06
          2.4   9.58732e+06
          2.5   9.58732e+06
          2.6   9.58732e+06
          2.7   9.58732e+06
          2.8   9.58732e+06
          2.9   9.58732e+06
            3   9.58732e+06
          3.1   9.58732e+06
          3.2   9.58732e+06
          3.3   9.58732e+06
          3.4   9.58732e+06
          3.5   9.58732e+06
          3.6   9.58732e+06
          3.7   9.58732e+06
          3.8   9.58732e+06
          3.9   9.58732e+06
            4   9.58732e+06
          4.1   9.58732e+06
          4.2   9.58732e+06
          4.3   9.58732e+06
          4.4   9.58732e+06
          4.5   9.58732e+06
          4.6   9.58732e+06
          4.7   9.58732e+06
          4.8   9.58732e+06
          4.9   9.58732e+06
            5   9.58732e+06
          5.1   9.58732e+06
          5.2   9.58732e+06
          5.3   9.58732e+06
          5.4   9.58732e+06
          5.5   9.58732e+06
          5.6   9.58732e+06
          5.7   9.58732e+06
          5.8   9.58732e+06
          5.9   9.58732e+06
            6   9.58732e+06
          6.1   9.58732e+06
          6.2   9.58732e+06
          6.3   9.58732e+06
          6.4   9.58732e+06
          6.5   9.58732e+06
          6.6   9.58732e+06
          6.7   9.58732e+06
          6.8   9.58732e+06
          6.9   9.58732e+06
            7   9.58732e+06
          7.1   9.58732e+06
          7.2   9.58732e+06
          7.3   9.58732e+06
          7.4   9.58732e+06
          7.5   9.58732e+06
          7.6   9.58732e+06
          7.7   9.58732e+06
          7.8   9.58732e+06
          7.9   9.58732e+06
            8   9.58732e+06
          8.1   9.58732e+06
          8.2   9.58732e+06
          8.3   9.58732e+06
          8.4   9.58732e+06
          8.5   9.58732e+06
          8.6   9.58732e+06
          8.7   9.58732e+06
          8.8   9.58732e+06
          8.9   9.58732e+06
            9   9.58732e+06
          9.1   9.58732e+06
          9.2   9.58732e+06
          9.3   9.58732e+06
          9.4   9.58732e+06
          9.5   9.58732e+06
          9.6   9.58732e+06
          9.7   9.58732e+06
          9.8   9.58732e+06
          9.9   9.58732e+06
           10   9.58732e+06
         10.1   9.58732e+06
         10.2   9.58732e+06
         10.3   9.58732e+06
         10.4   9.58732e+06
         10.5   9.58732e+06
         10.6   9.58732e+06
         10.7   9.58732e+06
         10.8   9.58732e+06
         10.9   9.58732e+06
           11   9.58732e+06
         11.1   9.58732e+06
         11.2   9.58732e+06
         11.3   9.58732e+06
         11.4   9.58732e+06
         11.5   9.58732e+06
         11.6   9.58732e+06
         11.7   9.58732e+06
         11.8   9.58732e+06
         11.9   9.58732e+06
           12   9.58732e+06
         12.1   9.58732e+06
         12.2   9.58732e+06
         12.3   9.58732e+06
         12.4   9.58732e+06
         12.5   9.58732e+06
         12.6   9.58732e+06
         12.7   9.58732e+06
         12.8   9.58732e+06
         12.9   9.58732e+06
           13   9.58732e+06
         13.1   9.58732e+06
         13.2   9.58732e+06
         13.3   9.58732e+06
         13.4   9.58732e+06
         13.5   9.58732e+06
         13.6   9.58732e+06
         13.7   9.58732e+06
         13.8   9.58732e+06
         13.9   9.58732e+06
           14   9.58732e+06
         14.1   9.58732e+06
         14.2   9.58732e+06
         14.3   9.58732e+06
         14.4   9.58732e+06
         14.5   9.58732e+06
         14.6   9.58732e+06
         14.7   9.58732e+06
         14.8   9.58732e+06
         14.9   9.58732e+06
           15   9.58732e+06
         15.1   9.58732e+06
         15.2   9.58732e+06
         15.3   9.58732e+06
         15.4   9.58732e+06
         15.5   9.58732e+06
         15.6   9.58732e+06
         15.7   9.58732e+06
         15.8   9.58732e+06
         15.9   9.58732e+06
           16   9.58732e+06
         16.1   9.58732e+06
         16.2   9.58732e+06
         16.3   9.58732e+06
         16.4   9.58732e+06
         16.5   9.58732e+06
         16.6   9.58732e+06
         16.7   9.58732e+06
         16.8   9.58732e+06
         16.9   9.58732e+06
           17   9.58732e+06
         17.1   9.58732e+06
         17.2   9.58732e+06
         17.3   9.58732e+06
         17.4   9.58732e+06
         17.5   9.58732e+06
         17.6   9.58732e+06
         17.7   9.58732e+06
         17.8   9.58732e+06
         17.9   9.58732e+06
           18   9.58732e+06
         18.1   9.58732e+06
         18.2   9.58732e+06
         18.3   9.58732e+06
         18.4   9.58732e+06
         18.5   9.58732e+06
         18.6   9.58732e+06
         18.7   9.58732e+06
         18.8   9.58732e+06
         18.9   9.58732e+06
           19   9.58732e+06
         19.1   9.58732e+06
         19.2   9.58732e+06
         19.3   9.58732e+06
         19.4   9.58732e+06
         19.5   9.58732e+06
         19.6   9.58732e+06
         19.7   9.58732e+06
         19.8   9.58732e+06
         19.9   9.58732e+06
           20   9.58732e+06
         20.1   9.58732e+06
         20.2   9.58732e+06
         20.3   9.58732e+06
         20.4   9.58732e+06
         20.5   9.58732e+06
         20.6   9.58732e+06
         20.7   9.58732e+06
         20.8   9.58732e+06
         20.9   9.58732e+06
           21   9.58732e+06
         21.1   9.58732e+06
         21.2   9.58732e+06
         21.3   9.58732e+06
         21.4   9.58732e+06
         21.5   9.58732e+06
         21.6   9.58732e+06
         21.7   9.58732e+06
         21.8   9.58732e+06
         21.9   9.58732e+06
           22   9.58732e+06
         22.1   9.58732e+06
         22.2   9.58732e+06
         22.3   9.58732e+06
         22.4   9.58732e+06
         22.5   9.58732e+06
         22.6   9.58732e+06
         22.7   9.58732e+06
         22.8   9.58732e+06
         22.9   9.58732e+06
           23   9.58732e+06
         23.1   9.58732e+06
         23.2   9.58732e+06
         23.3   9.58732e+06
         23.4   9.58732e+06
         23.5   9.58732e+06
         23.6   9.58732e+06
         23.7   9.58732e+06
         23.8   9.58732e+06
         23.9   9.58732e+06
           24   9.58732e+06
         24.1   9.58732e+06
         24.2   9.58732e+06
         24.3   9.58732e+06
         24.4   9.58732e+06
         24.5   9.58732e+06
         24.6   9.58732e+06
         24.7   9.58732e+06
         24.8   9.58732e+06
         24.9   9.58732e+06
           25   9.58732e+06
         25.1   9.58732e+06
         25.2   9.58732e+06
         25.3   9.58732e+06
         25.4   9.58732e+06
         25.5   9.58732e+06
         25.6   9.58732e+06
         25.7   9.58732e+06
         25.8   9.58732e+06
         25.9   9.58732e+06
           26   9.58732e+06
         26.1   9.58732e+06
         26.2   9.58732e+06
         26.3   9.58732e+06
         26.4   9.58732e+06
         26.5   9.58732e+06
         26.6   9.58732e+06
         26.7   9.58732e+06
         26.8   9.58732e+06
         26.9   9.58732e+06
           27   9.58732e+06
         27.1   9.58732e+06
         27.2   9.58732e+06
         27.3   9.58732e+06
         27.4   9.58732e+06
         27.5   9.58732e+06
         27.6   9.58732e+06
         27.7   9.58732e+06
         27.8   9.58732e+06
         27.9   9.58732e+06
           28   9.58732e+06
         28.1   9.58732e+06
         28.2   9.58732e+06
         28.3   9.58732e+06
         28.4   9.58732e+06
         28.5   9.58732e+06
         28.6   9.58732e+06
         28.7   9.58732e+06
         28.8   9.58732e+06
         28.9   9.58732e+06
           29   9.58732e+06
         29.1   9.58732e+06
         29.2   9.58732e+06
         29.3   9.58732e+06
         29.4   9.58732e+06
         29.5   9.58732e+06
         29.6   9.58732e+06
         29.7   9.58732e+06
         29.8   9.58732e+06
         29.9   9.58732e+06
           30   9.58732e+06
         30.1   9.58732e+06
         30.2   9.58732e+06
         30.3   9.58732e+06
         30.4   9.58732e+06
         30.5   9.58732e+06
         30.6   9.58732e+06
         30.7   9.58732e+06
         30.8   9.58732e+06
         30.9   9.58732e+06
           31   9.58732e+06
         31.1   9.58732e+06
         31.2   9.58732e+06
         31.3   9.58732e+06
         31.4   9.58732e+06
         31.5   9.58732e+06
         31.6   9.58732e+06
         31.7   9.58732e+06
         31.8   9.58732e+06
         31.9   9.58732e+06
           32   9.58732e+06
         32.1   9.58732e+06
         32.2   9.58732e+06
         32.3   9.58732e+06
         32.4   9.58732e+06
         32.5   9.58732e+06
         32.6   9.58732e+06
         32.7   9.58732e+06
         32.8   9.58732e+06
         32.9   9.58732e+06
           33   9.58732e+06
         33.1   9.58732e+06
         33.2   9.58732e+06
         33.3   9.58732e+06
         33.4   9.58732e+06
         33.5   9.58732e+06
         33.6   9.58732e+06
         33.7   9.58732e+06
         33.8   9.58732e+06
         33.9   9.58732e+06
           34   9.58732e+06
         34.1   9.58732e+06
         34.2   9.58732e+06
         34.3   9.58732e+06
         34.4   9.58732e+06
         34.5   9.58732e+06
         34.6   9.58732e+06
         34.7   9.58732e+06
         34.8   9.58732e+06
         34.9   9.58732e+06
           35   9.58732e+06
         35.1   9.58732e+06
         35.2   9.58732e+06
         35.3   9.58732e+06
         35.4   9.58732e+06
         35.5   9.58732e+06
         35.6   9.58732e+06
         35.7   9.58732e+06
         35.8   9.58732e+06
         35.9   9.58732e+06
           36   9.58732e+06
         36.1   9.58732e+06
         36.2   9.58732e+06
         36.3   9.58732e+06
         36.4   9.58732e+06
         36.5   9.58732e+06
         36.6   9.58732e+06
         36.7   9.58732e+06
         36.8   9.58732e+06
         36.9   9.58732e+06
           37   9.58732e+06
         37.1   9.58732e+06
         37.2   9.58732e+06
         37.3   9.58732e+06
         37.4   9.58732e+06
         37.5   9.58732e+06
         37.6   9.58732e+06
         37.7   9.58732e+06
         37.8   9.58732e+06
         37.9   9.58732e+06
           38   9.58732e+06
         38.1   9.58732e+06
         38.2   9.58732e+06
         38.3   9.58732e+06
         38.4   9.58732e+06
         38.5   9.58732e+06
         38.6   9.58732e+06
         38.7   9.58732e+06
         38.8   9.58732e+06
         38.9   9.58732e+06
           39   9.58732e+06
         39.1   9.58732e+06
         39.2   9.58732e+06
         39.3   9.58732e+06
         39.4   9.58732e+06
         39.5   9.58732e+06
         39.6   9.58732e+06
         39.7   9.58732e+06
         39.8   9.58732e+06
         39.9   9.58732e+06
           40   9.58732e+06
         40.1   9.58732e+06
         40.2   9.58732e+06
         40.3   9.58732e+06
         40.4   9.58732e+06
         40.5   9.58732e+06
         40.6   9.58732e+06
         40.7   9.58732e+06
         40.8   9.58732e+06
         40.9   9.58732e+06
           41   9.58732e+06
         41.1   9.58732e+06
         41.2   9.58732e+06
         41.3   9.58732e+06
         41.4   9.58732e+06
         41.5   9.58732e+06
         41.6   9.58732e+06
         41.7   9.58732e+06
         41.8   9.58732e+06
         41.9   9.58732e+06
           42   9.58732e+06
         42.1   9.58732e+06
         42.2   9.58732e+06
         42.3   9.58732e+06
         42.4   9.58732e+06
         42.5   9.58732e+06
         42.6   9.58732e+06
         42.7   9.58732e+06
         42.8   9.58732e+06
         42.9   9.58732e+06
           43   9.58732e+06
         43.1   9.58732e+06
         43.2   9.58732e+06
         43.3   9.58732e+06
         43.4   9.58732e+06
         43.5   9.58732e+06
         43.6   9.58732e+06
         43.7   9.58732e+06
         43.8   9.58732e+06
         43.9   9.58732e+06
           44   9.58732e+06
         44.1   9.58732e+06
         44.2   9.58732e+06
         44.3   9.58732e+06
         44.4   9.58732e+06
         44.5   9.58732e+06
         44.6   9.58732e+06
         44.7   9.58732e+06
         44.8   9.58732e+06
         44.9   9.58732e+06
           45   9.58732e+06
         45.1   9.58732e+06
         45.2   9.58732e+06
         45.3   9.58732e+06
         45.4   9.58732e+06
         45.5   9.58732e+06
         45.6   9.58732e+06
         45.7   9.58732e+06
         45.8   9.58732e+06
         45.9   9.58732e+06
           46   9.58732e+06
         46.1   9.58732e+06
         46.2   9.58732e+06
         46.3   9.58732e+06
         46.4   9.58732e+06
         46.5   9.58732e+06
         46.6   9.58732e+06
         46.7   9.58732e+06
         46.8   9.58732e+06
         46.9   9.58732e+06
           47   9.58732e+06
         47.1   9.58732e+06
         47.2   9.58732e+06
         47.3   9.58732e+06
         47.4   9.58732e+06
         47.5   9.58732e+06
         47.6   9.58732e+06
         47.7   9.58732e+06
         47.8   9.58732e+06
         47.9   9.58732e+06
           48   9.58732e+06
         48.1   9.58732e+06
         48.2   9.58732e+06
         48.3   9.58732e+06
         48.4   9.58732e+06
         48.5   9.58732e+06
         48.6   9.58732e+06
         48.7   9.58732e+06
         48.8   9.58732e+06
         48.9   9.58732e+06
           49   9.58732e+06
         49.1   9.58732e+06
         49.2   9.58732e+06
         49.3   9.58732e+06
         49.4   9.58732e+06
         49.5   9.58732e+06
         49.6   9.58732e+06
         49.7   9.58732e+06
         49.8   9.58732e+06
         49.9   9.58732e+06
           50   9.58732e+06
         50.1   9.58732e+06
         50.2   9.58732e+06
         50.3   9.58732e+06
         50.4   9.58732e+06
         50.5   9.58732e+06
         50.6   9.58732e+06
         50.7   9.58732e+06
         50.8   9.58732e+06
         50.9   9.58732e+06
           51   9.58732e+06
         51.1   9.58732e+06
         51.2   9.58732e+06
         51.3   9.58732e+06
         51.4   9.58732e+06
         51.5   9.58732e+06
         51.6   9.58732e+06
         51.7   9.58732e+06
         51.8   9.58732e+06
         51.9   9.58732e+06
           52   9.58732e+06
         52.1   9.58732e+06
         52.2   9.58732e+06
         52.3   9.58732e+06
         52.4   9.58732e+06
         52.5   9.58732e+06
         52.6   9.58732e+06
         52.7   9.58732e+06
         52.8   9.58732e+06
         52.9   9.58732e+06
           53   9.58732e+06
         53.1   9.58732e+06
         53.2   9.58732e+06
         53.3   9.58732e+06
         53.4   9.58732e+06
         53.5   9.58732e+06
         53.6   9.58732e+06
         53.7   9.58732e+06
         53.8   9.58732e+06
         53.9   9.58732e+06
           54   9.58732e+06
         54.1   9.58732e+06
         54.2   9.58732e+06
         54.3   9.58732e+06
         54.4   9.58732e+06
         54.5   9.58732e+06
         54.6   9.58732e+06
         54.7   9.58732e+06
         54.8   9.58732e+06
         54.9   9.58732e+06
           55   9.58732e+06
         55.1   9.58732e+06
         55.2   9.58732e+06
         55.3   9.58732e+06
         55.4   9.58732e+06
         55.5   9.58732e+06
         55.6   9.58732e+06
         55.7   9.58732e+06
         55.8   9.58732e+06
         55.9   9.58732e+06
           56   9.58732e+06
         56.1   9.58732e+06
         56.2   9.58732e+06
         56.3   9.58732e+06
         56.4   9.58732e+06
         56.5   9.58732e+06
         56.6   9.58732e+06
         56.7   9.58732e+06
         56.8   9.58732e+06
         56.9   9.58732e+06
           57   9.58732e+06
         57.1   9.58732e+06
         57.2   9.58732e+06
         57.3   9.58732e+06
         57.4   9.58732e+06
         57.5   9.58732e+06
         57.6   9.58732e+06
         57.7   9.58732e+06
         57.8   9.58732e+06
         57.9   9.58732e+06
           58   9.58732e+06
         58.1   9.58732e+06
         58.2   9.58732e+06
         58.3   9.58732e+06
         58.4   9.58732e+06
         58.5   9.58732e+06
         58.6   9.58732e+06
         58.7   9.58732e+06
         58.8   9.58732e+06
         58.9   9.58732e+06
           59   9.58732e+06
         59.1   9.58732e+06
         59.2   9.58732e+06
         59.3   9.58732e+06
         59.4   9.58732e+06
         59.5   9.58732e+06
         59.6   9.58732e+06
         59.7   9.58732e+06
         59.8   9.58732e+06
         59.9   9.58732e+06
           60   9.58732e+06
         60.1   9.58732e+06
         60.2   9.58732e+06
         60.3   9.58732e+06
         60.4   9.58732e+06
         60.5   9.58732e+06
         60.6   9.58732e+06
         60.7   9.58732e+06
         60.8   9.58732e+06
         60.9   9.58732e+06
           61   9.58732e+06
         61.1   9.58732e+06
         61.2   9.58732e+06
         61.3   9.58732e+06
         61.4   9.58732e+06
         61.5   9.58732e+06
         61.6   9.58732e+06
         61.7   9.58732e+06
         61.8   9.58732e+06
         61.9   9.58732e+06
           62   9.58732e+06
         62.1   9.58732e+06
         62.2   9.58732e+06
         62.3   9.58732e+06
         62.4   9.58732e+06
         62.5   9.58732e+06
         62.6   9.58732e+06
         62.7   9.58732e+06
         62.8   9.58732e+06
         62.9   9.58732e+06
           63   9.58732e+06
         63.1   9.58732e+06
         63.2   9.58732e+06
         63.3   9.58732e+06
         63.4   9.58732e+06
         63.5   9.58732e+06
         63.6   9.58732e+06
         63.7   9.58732e+06
         63.8   9.58732e+06
         63.9   9.58732e+06
           64   9.58732e+06
         64.1   9.58732e+06
         64.2   9.58732e+06
         64.3   9.58732e+06
         64.4   9.58732e+06
         64.5   9.58732e+06
         64.6   9.58732e+06
         64.7   9.58732e+06
         64.8   9.58732e+06
         64.9   9.58732e+06
           65   9.58732e+06
         65.1   9.58732e+06
         65.2   9.58732e+06
         65.3   9.58732e+06
         65.4   9.58732e+06
         65.5   9.58732e+06
         65.6   9.58732e+06
         65.7   9.58732e+06
         65.8   9.58732e+06
         65.9   9.58732e+06
           66   9.58732e+06
         66.1   9.58732e+06
         66.2   9.58732e+06
         66.3   9.58732e+06
         66.4   9.58732e+06
         66.5   9.58732e+06
         66.6   9.58732e+06
         66.7   9.58732e+06
         66.8   9.58732e+06
         66.9   9.58732e+06
           67   9.58732e+06
         67.1   9.58732e+06
         67.2   9.58732e+06
         67.3   9.58732e+06
         67.4   9.58732e+06
         67.5   9.58732e+06
         67.6   9.58732e+06
         67.7   9.58732e+06
         67.8   9.58732e+06
         67.9   9.58732e+06
           68   9.58732e+06
         68.1   9.58732e+06
         68.2   9.58732e+06
         68.3   9.58732e+06
         68.4   9.58732e+06
         68.5   9.58732e+06
         68.6   9.58732e+06
         68.7   9.58732e+06
         68.8   9.58732e+06
         68.9   9.58732e+06
           69   9.58732e+06
         69.1   9.58732e+06
         69.2   9.58732e+06
         69.3   9.58732e+06
         69.4   9.58732e+06
         69.5   9.58732e+06
         69.6   9.58732e+06
         69.7   9.58732e+06
         69.8   9.58732e+06
         69.9   9.58732e+06
           70   9.58732e+06
         70.1   9.58732e+06
         70.2   9.58732e+06
         70.3   9.58732e+06
         70.4   9.58732e+06
         70.5   9.58732e+06
         70.6   9.58732e+06
         70.7   9.58732e+06
         70.8   9.58732e+06
         70.9   9.58732e+06
           71   9.58732e+06
         71.1   9.58732e+06
         71.2   9.58732e+06
         71.3   9.58732e+06
         71.4   9.58732e+06
         71.5   9.58732e+06
         71.6   9.58732e+06
         71.7   9.58732e+06
         71.8   9.58732e+06
         71.9   9.58732e+06
           72   9.58732e+06
         72.1   9.58732e+06
         72.2   9.58732e+06
         72.3   9.58732e+06
         72.4   9.58732e+06
         72.5   9.58732e+06
         72.6   9.58732e+06
         72.7   9.58732e+06
         72.8   9.58732e+06
         72.9   9.58732e+06
           73   9.58732e+06
         73.1   9.58732e+06
         73.2   9.58732e+06
         73.3   9.58732e+06
         73.4   9.58732e+06
         73.5   9.58732e+06
         73.6   9.58732e+06
         73.7   9.58732e+06
         73.8   9.58732e+06
         73.9   9.58732e+06
           74   9.58732e+06
         74.1   9.58732e+06
         74.2   9.58732e+06
         74.3   9.58732e+06
         74.4   9.58732e+06
         74.5   9.58732e+06
         74.6   9.58732e+06
         74.7   9.58732e+06
         74.8   9.58732e+06
         74.9   9.58732e+06
           75   9.58732e+06
         75.1   9.58732e+06
         75.2   9.58732e+06
         75.3   9.58732e+06
         75.4   9.58732e+06
         75.5   9.58732e+06
         75.6   9.58732e+06
         75.7   9.58732e+06
         75.8   9.58732e+06
         75.9   9.58732e+06
           76   9.58732e+06
         76.1   9.58732e+06
         76.2   9.58732e+06
         76.3   9.58732e+06
         76.4   9.58732e+06
         76.5   9.58732e+06
         76.6   9.58732e+06
         76.7   9.58732e+06
         76.8   9.58732e+06
         76.9   9.58732e+06
           77   9.58732e+06
         77.1   9.58732e+06
         77.2   9.58732e+06
         77.3   9.58732e+06
         77.4   9.58732e+06
         77.5   9.58732e+06
         77.6   9.58732e+06
         77.7   9.58732e+06
         77.8   9.58732e+06
         77.9   9.58732e+06
           78   9.58732e+06
         78.1   9.58732e+06
         78.2   9.58732e+06
         78.3   9.58732e+06
         78.4   9.58732e+06
         78.5   9.58732e+06
         78.6   9.58732e+06
         78.7   9.58732e+06
         78.8   9.58732e+06
         78.9   9.58732e+06
           79   9.58732e+06
         79.1   9.58732e+06
         79.2   9.58732e+06
         79.3   9.58732e+06
         79.4   9.58732e+06
         79.5   9.58732e+06
         79.6   9.58732e+06
         79.7   9.58732e+06
         79.8   9.58732e+06
         79.9   9.58732e+06
           80   9.58732e+06
         80.1   9.58732e+06
         80.2   9.58732e+06
         80.3   9.58732e+06
         80.4   9.58732e+06
         80.5   9.58732e+06
         80.6   9.58732e+06
         80.7   9.58732e+06
         80.8   9.58732e+06
         80.9   9.58732e+06
           81   9.58732e+06
         81.1   9.58732e+06
         81.2   9.58732e+06
         81.3   9.58732e+06
         81.4   9.58732e+06
         81.5   9.58732e+06
         81.6   9.58732e+06
         81.7   9.58732e+06
         81.8   9.58732e+06
         81.9   9.58732e+06
           82   9.58732e+06
         82.1   9.58732e+06
         82.2   9.58732e+06
         82.3   9.58732e+06
         82.4   9.58732e+06
         82.5   9.58732e+06
         82.6   9.58732e+06
         82.7   9.58732e+06
         82.8   9.58732e+06
         82.9   9.58732e+06
           83   9.58732e+06
         83.1   9.58732e+06
         83.2   9.58732e+06
         83.3   9.58732e+06
         83.4   9.58732e+06
         83.5   9.58732e+06
         83.6   9.58732e+06
         83.7   9.58732e+06
         83.8   9.58732e+06
         83.9   9.58732e+06
           84   9.58732e+06
         84.1   9.58732e+06
         84.2   9.58732e+06
         84.3   9.58732e+06
         84.4   9.58732e+06
         84.5   9.58732e+06
         84.6   9.58732e+06
         84.7   9.58732e+06
         84.8   9.58732e+06
         84.9   9.58732e+06
           85   9.58732e+06
         85.1   9.58732e+06
         85.2   9.58732e+06
         85.3   9.58732e+06
         85.4   9.58732e+06
         85.5   9.58732e+06
         85.6   9.58732e+06
         85.7   9.58732e+06
         85.8   9.58732e+06
         85.9   9.58732e+06
           86   9.58732e+06
         86.1   9.58732e+06
         86.2   9.58732e+06
         86.3   9.58732e+06
         86.4   9.58732e+06
         86.5   9.58732e+06
         86.6   9.58732e+06
         86.7   9.58732e+06
         86.8   9.58732e+06
         86.9   9.58732e+06
           87   9.58732e+06
         87.1   9.58732e+06
         87.2   9.58732e+06
         87.3   9.58732e+06
         87.4   9.58732e+06
         87.5   9.58732e+06
         87.6   9.58732e+06
         87.7   9.58732e+06
         87.8   9.58732e+06
         87.9   9.58732e+06
           88   9.58732e+06
         88.1   9.58732e+06
         88.2   9.58732e+06
         88.3   9.58732e+06
         88.4   9.58732e+06
         88.5   9.58732e+06
         88.6   9.58732e+06
         88.7   9.58732e+06
         88.8   9.58732e+06
         88.9   9.58732e+06
           89   9.58732e+06
         89.1   9.58732e+06
         89.2   9.58732e+06
         89.3   9.58732e+06
         89.4   9.58732e+06
         89.5   9.58732e+06
         89.6   9.58732e+06
         89.7   9.58732e+06
         89.8   9.58732e+06
         89.9   9.58732e+06
           90   9.58732e+06
         90.1   9.58732e+06
         90.2   9.58732e+06
         90.3   9.58732e+06
         90.4   9.58732e+06
         90.5   9.58732e+06
         90.6   9.58732e+06
         90.7   9.58732e+06
         90.8   9.58732e+06
         90.9   9.58732e+06
           91   9.58732e+06
         91.1   9.58732e+06
         91.2   9.58732e+06
         91.3   9.58732e+06
         91.4   9.58732e+06
         91.5   9.58732e+06
         91.6   9.58732e+06
         91.7   9.58732e+06
         91.8   9.58732e+06
         91.9   9.58732e+06
           92   9.58732e+06
         92.1   9.58732e+06
         92.2   9.58732e+06
         92.3   9.58732e+06
         92.4   9.58732e+06
         92.5   9.58732e+06
         92.6   9.58732e+06
         92.7   9.58732e+06
         92.8   9.58732e+06
         92.9   9.58732e+06
           93   9.58732e+06
         93.1   9.58732e+06
         93.2   9.58732e+06
         93.3   9.58732e+06
         93.4   9.58732e+06
         93.5   9.58732e+06
         93.6   9.58732e+06
         93.7   9.58732e+06
         93.8   9.58732e+06
         93.9   9.58732e+06
           94   9.58732e+06
         94.1   9.58732e+06
         94.2   9.58732e+06
         94.3   9.58732e+06
         94.4   9.58732e+06
         94.5   9.58732e+06
         94.6   9.58732e+06
         94.7   9.58732e+06
         94.8   9.58732e+06
         94.9   9.58732e+06
           95   9.58732e+06
         95.1   9.58732e+06
         95.2   9.58732e+06
         95.3   9.58732e+06
         95.4   9.58732e+06
         95.5   9.58732e+06
         95.6   9.58732e+06
         95.7   9.58732e+06
         95.8   9.58732e+06
         95.9   9.58732e+06
           96   9.58732e+06
         96.1   9.58732e+06
         96.2   9.58732e+06
         96.3   9.58732e+06
         96.4   9.58732e+06
         96.5   9.58732e+06
         96.6   9.58732e+06
         96.7   9.58732e+06
         96.8   9.58732e+06
         96.9   9.58732e+06
           97   9.58732e+06
         97.1   9.58732e+06
         97.2   9.58732e+06
         97.3   9.58732e+06
         97.4   9.58732e+06
         97.5   9.58732e+06
         97.6   9.58732e+06
         97.7   9.58732e+06
         97.8   9.58732e+06
         97.9   9.58732e+06
           98   9.58732e+06
         98.1   9.58732e+06
         98.2   9.58732e+06
         98.3   9.58732e+06
         98.4   9.58732e+06
         98.5   9.58732e+06
         98.6   9.58732e+06
         98.7   9.58732e+06
         98.8   9.58732e+06
         98.9   9.58732e+06
           99   9.58732e+06
         99.1   9.58732e+06
         99.2   9.58732e+06
         99.3   9.58732e+06
         99.4   9.58732e+06
         99.5   9.58732e+06
         99.6   9.58732e+06
         99.7   9.58732e+06
         99.8   9.58732e+06
         99.9   9.58732e+06
          100   9.58732e+06
        100.1   9.58732e+06
        100.2   9.58732e+06
        100.3   9.58732e+06
        100.4   9.58732e+06
        100.5   9.58732e+06
        100.6   9.58732e+06
        100.7   9.58732e+06
        100.8   9.58732e+06
        100.9   9.58732e+06
          101   9.58732e+06
        101.1   9.58732e+06
        101.2   9.58732e+06
        101.3   9.58732e+06
        101.4   9.58732e+06
        101.5   9.58732e+06
        101.6   9.58732e+06
        101.7   9.58732e+06
        101.8   9.58732e+06
        101.9   9.58732e+06
          102   9.58732e+06
        102.1   9.58732e+06
        102.2   9.58732e+06
        102.3   9.58732e+06
        102.4   9.58732e+06
        102.5   9.58732e+06
        102.6   9.58732e+06
        102.7   9.58732e+06
        102.8   9.58732e+06
        102.9   9.58732e+06
          103   9.58732e+06
        103.1   9.58732e+06
        103.2   9.58732e+06
        103.3   9.58732e+06
        103.4   9.58732e+06
        103.5   9.58732e+06
        103.6   9.58732e+06
        103.7   9.58732e+06
        103.8   9.58732e+06
        103.9   9.58732e+06
          104   9.58732e+06
        104.1   9.58732e+06
        104.2   9.58732e+06
        104.3   9.58732e+06
        104.4   9.58732e+06
        104.5   9.58732e+06
        104.6   9.58732e+06
        104.7   9.58732e+06
        104.8   9.58732e+06
        104.9   9.58732e+06
          105   9.58732e+06
        105.1   9.58732e+06
        105.2   9.58732e+06
        105.3   9.58732e+06
        105.4   9.58732e+06
        105.5   9.58732e+06
        105.6   9.58732e+06
        105.7   9.58732e+06
        105.8   9.58732e+06
        105.9   9.58732e+06
          106   9.58732e+06
        106.1   9.58732e+06
        106.2   9.58732e+06
        106.3   9.58732e+06
        106.4   9.58732e+06
        106.5   9.58732e+06
        106.6   9.58732e+06
        106.7   9.58732e+06
        106.8   9.58732e+06