0.040000 
0.040003 
0.039958 
0.039761 
0.039272 
0.038259 
0.036601 
0.034253 
0.031099 
0.028823 
0.026559 
0.024337 
0.022183 
0.020116 
0.018175 
0.016387 
0.014745 
0.013265 
0.011928 
0.010727 
0.009654 
0.008548 
0.007584 
0.006741 
0.006007 
0.005371 
0.004815 
0.004328 
0.003902 
0.003397 
0.002973 
0.002614 
0.002311 
0.002052 
0.001830 
0.001640 
0.001475 
0.001331 
0.001207 
0.001097 
0.001001 
0.000917 
0.000841 
0.000775 
0.000715 
0.000679 
0.000645 
0.000613 
0.000584 
