# Probe 0 (0.05 0.05 0.005)
#       Probe             0
#        Time
           20    0.00602647
           40    0.00602647
           60    0.00602647
           80    0.00602647
          100    0.00602647
          120    0.00602647
          140    0.00602647
          160    0.00602647
          180    0.00602647
          200    0.00602647
          220    0.00602647
          240    0.00602647
          260    0.00602647
          280    0.00602647
          300    0.00602647
          320    0.00602647
          340    0.00602647
          360    0.00602647
          380    0.00602647
          400    0.00602647
          420    0.00602647
          440    0.00602647
          460    0.00602647
          480    0.00602647
          500    0.00602647
          520    0.00602647
          540    0.00602647
          560    0.00602647
          580    0.00602647
          600    0.00602647
          620    0.00602647
          640    0.00602647
          660    0.00602647
          680    0.00602647
          700    0.00602647
          720    0.00602647
          740    0.00602647
          760    0.00602647
          780    0.00602647
          800    0.00602647
          820    0.00602647
          840    0.00602647
          860    0.00602647
          880    0.00602647
          900    0.00602647
          920    0.00602647
          940    0.00602647
          960    0.00602647
          980    0.00602647
         1000    0.00602647
         1020    0.00602647
         1040    0.00602647
         1060    0.00602647
         1080    0.00602647
         1100    0.00602647
         1120    0.00602647
         1140    0.00602647
         1160    0.00602647
         1180    0.00602647
         1200    0.00602647
         1220    0.00602647
         1240    0.00602647
         1260    0.00602647
         1280    0.00602647
         1300    0.00602647
         1320    0.00602647
         1340    0.00602647
         1360    0.00602647
         1380    0.00602647
         1400    0.00602647
         1420    0.00602647
         1440    0.00602647
         1460    0.00602647
         1480    0.00602647
         1500    0.00602647
         1520    0.00602647
         1540    0.00602647
         1560    0.00602647
         1580    0.00602647
         1600    0.00602647
         1620    0.00602647
         1640    0.00602647
         1660    0.00602647
         1680    0.00602647
         1700    0.00602647
         1720    0.00602647
         1740    0.00602647
         1760    0.00602647
         1780    0.00602647
         1800    0.00602647
         1820    0.00602647
         1840    0.00602647
         1860    0.00602647
         1880    0.00602647
         1900    0.00602647
         1920    0.00602647
         1940    0.00602647
         1960    0.00602647
         1980    0.00602647
         2000    0.00602647
         2020    0.00602647
         2040    0.00602647
         2060    0.00602647
         2080    0.00602647
         2100    0.00602647
         2120    0.00602647
         2140    0.00602647
         2160    0.00602647
         2180    0.00602647
         2200    0.00602647
         2220    0.00602647
         2240    0.00602647
         2260    0.00602647
         2280    0.00602647
         2300    0.00602647
         2320    0.00602647
         2340    0.00602647
         2360    0.00602647
         2380    0.00602646
         2400    0.00602646
         2420    0.00602646
         2440    0.00602646
         2460    0.00602646
         2480    0.00602646
         2500    0.00602646
         2520    0.00602646
         2540    0.00602646
         2560    0.00602646
         2580    0.00602646
         2600    0.00602646
         2620    0.00602646
         2640    0.00602646
         2660    0.00602646
         2680    0.00602646
         2700    0.00602646
         2720    0.00602646
         2740    0.00602646
         2760    0.00602646
         2780    0.00602646
         2800    0.00602646
         2820    0.00602646
         2840    0.00602646
         2860    0.00602646
         2880    0.00602646
         2900    0.00602646
         2920    0.00602646
         2940    0.00602646
         2960    0.00602646
         2980    0.00602646
         3000    0.00602646
         3020    0.00602646
         3040    0.00602646
         3060    0.00602646
         3080    0.00602646
         3100    0.00602646
         3120    0.00602646
         3140    0.00602646
         3160    0.00602646
         3180    0.00602646
         3200    0.00602646
         3220    0.00602646
         3240    0.00602646
         3260    0.00602646
         3280    0.00602646
         3300    0.00602646
         3320    0.00602646
         3340    0.00602646
         3360    0.00602646
         3380    0.00602646
         3400    0.00602646
         3420    0.00602646
         3440    0.00602646
         3460    0.00602646
         3480    0.00602646
         3500    0.00602646
         3520    0.00602646
         3540    0.00602646
         3560    0.00602646
         3580    0.00602646
         3600    0.00602646
         3620    0.00602646
         3640    0.00602646
         3660    0.00602646
         3680    0.00602646
         3700    0.00602646
         3720    0.00602646
         3740    0.00602646
         3760    0.00602646
         3780    0.00602646
         3800    0.00602646
         3820    0.00602646
         3840    0.00602646
         3860    0.00602646
         3880    0.00602646
         3900    0.00602646
         3920    0.00602646
         3940    0.00602645
         3960    0.00602645
         3980    0.00602645
         4000    0.00602645
         4020    0.00602645
         4040    0.00602645
         4060    0.00602645
         4080    0.00602645
         4100    0.00602645
         4120    0.00602645
         4140    0.00602645
         4160    0.00602645
         4180    0.00602645
         4200    0.00602645
         4220    0.00602645
         4240    0.00602645
         4260    0.00602645
         4280    0.00602645
         4300    0.00602645
         4320    0.00602645
         4340    0.00602645
         4360    0.00602645
         4380    0.00602645
         4400    0.00602645
         4420    0.00602645
         4440    0.00602645
         4460    0.00602645
         4480    0.00602645
         4500    0.00602645
         4520    0.00602645
         4540    0.00602645
         4560    0.00602645
         4580    0.00602645
         4600    0.00602644
         4620    0.00602644
         4640    0.00602644
         4660    0.00602644
         4680    0.00602644
         4700    0.00602644
         4720    0.00602644
         4740    0.00602644
         4760    0.00602644
         4780    0.00602644
         4800    0.00602644
         4820    0.00602644
         4840    0.00602644
         4860    0.00602644
         4880    0.00602644
         4900    0.00602644
         4920    0.00602644
         4940    0.00602644
         4960    0.00602644
         4980    0.00602644
         5000    0.00602644
         5020    0.00602644
         5040    0.00602644
         5060    0.00602643
         5080    0.00602643
         5100    0.00602643
         5120    0.00602643
         5140    0.00602643
         5160    0.00602643
         5180    0.00602643
         5200    0.00602643
         5220    0.00602643
         5240    0.00602643
         5260    0.00602643
         5280    0.00602643
         5300    0.00602643
         5320    0.00602643
         5340    0.00602643
         5360    0.00602643
         5380    0.00602643
         5400    0.00602643
         5420    0.00602642
         5440    0.00602642
         5460    0.00602642
         5480    0.00602642
         5500    0.00602642
         5520    0.00602642
         5540    0.00602642
         5560    0.00602642
         5580    0.00602642
         5600    0.00602642
         5620    0.00602642
         5640    0.00602642
         5660    0.00602642
         5680    0.00602642
         5700    0.00602642
         5720    0.00602641
         5740    0.00602641
         5760    0.00602641
         5780    0.00602641
         5800    0.00602641
         5820    0.00602641
         5840    0.00602641
         5860    0.00602641
         5880    0.00602641
         5900    0.00602641
         5920    0.00602641
         5940    0.00602641
         5960    0.00602641
         5980     0.0060264
         6000     0.0060264
         6020     0.0060264
         6040     0.0060264
         6060     0.0060264
         6080     0.0060264
         6100     0.0060264
         6120     0.0060264
         6140     0.0060264
         6160     0.0060264
         6180     0.0060264
         6200    0.00602639
         6220    0.00602639
         6240    0.00602639
         6260    0.00602639
         6280    0.00602639
         6300    0.00602639
         6320    0.00602639
         6340    0.00602639
         6360    0.00602639
         6380    0.00602639
         6400    0.00602639
         6420    0.00602638
         6440    0.00602638
         6460    0.00602638
         6480    0.00602638
         6500    0.00602638
         6520    0.00602638
         6540    0.00602638
         6560    0.00602638
         6580    0.00602638
         6600    0.00602637
         6620    0.00602637
         6640    0.00602637
         6660    0.00602637
         6680    0.00602637
         6700    0.00602637
         6720    0.00602637
         6740    0.00602637
         6760    0.00602637
         6780    0.00602636
         6800    0.00602636
         6820    0.00602636
         6840    0.00602636
         6860    0.00602636
         6880    0.00602636
         6900    0.00602636
         6920    0.00602636
         6940    0.00602635
         6960    0.00602635
         6980    0.00602635
         7000    0.00602635
         7020    0.00602635
         7040    0.00602635
         7060    0.00602635
         7080    0.00602634
         7100    0.00602634
         7120    0.00602634
         7140    0.00602634
         7160    0.00602634
         7180    0.00602634
         7200    0.00602634
         7220    0.00602633
         7240    0.00602633
         7260    0.00602633
         7280    0.00602633
         7300    0.00602633
         7320    0.00602633
         7340    0.00602633
         7360    0.00602632
         7380    0.00602632
         7400    0.00602632
         7420    0.00602632
         7440    0.00602632
         7460    0.00602632
         7480    0.00602631
         7500    0.00602631
         7520    0.00602631
         7540    0.00602631
         7560    0.00602631
         7580    0.00602631
         7600     0.0060263
         7620     0.0060263
         7640     0.0060263
         7660     0.0060263
         7680     0.0060263
         7700     0.0060263
         7720    0.00602629
         7740    0.00602629
         7760    0.00602629
         7780    0.00602629
         7800    0.00602629
         7820    0.00602628
         7840    0.00602628
         7860    0.00602628
         7880    0.00602628
         7900    0.00602628
         7920    0.00602628
         7940    0.00602627
         7960    0.00602627
         7980    0.00602627
         8000    0.00602627
         8020    0.00602627
         8040    0.00602626
         8060    0.00602626
         8080    0.00602626
         8100    0.00602626
         8120    0.00602626
         8140    0.00602625
         8160    0.00602625
         8180    0.00602625
         8200    0.00602625
         8220    0.00602624
         8240    0.00602624
         8260    0.00602624
         8280    0.00602624
         8300    0.00602624
         8320    0.00602623
         8340    0.00602623
         8360    0.00602623
         8380    0.00602623
         8400    0.00602622
         8420    0.00602622
         8440    0.00602622
         8460    0.00602622
         8480    0.00602621
         8500    0.00602621
         8520    0.00602621
         8540    0.00602621
         8560    0.00602621
         8580     0.0060262
         8600     0.0060262
         8620     0.0060262
         8640     0.0060262
         8660    0.00602619
         8680    0.00602619
         8700    0.00602619
         8720    0.00602619
         8740    0.00602618
         8760    0.00602618
         8780    0.00602618
         8800    0.00602617
         8820    0.00602617
         8840    0.00602617
         8860    0.00602617
         8880    0.00602616
         8900    0.00602616
         8920    0.00602616
         8940    0.00602616
         8960    0.00602615
         8980    0.00602615
         9000    0.00602615
         9020    0.00602614
         9040    0.00602614
         9060    0.00602614
         9080    0.00602614
         9100    0.00602613
         9120    0.00602613
         9140    0.00602613
         9160    0.00602612
         9180    0.00602612
         9200    0.00602612
         9220    0.00602611
         9240    0.00602611
         9260    0.00602611
         9280    0.00602611
         9300     0.0060261
         9320     0.0060261
         9340     0.0060261
         9360    0.00602609
         9380    0.00602609
         9400    0.00602609
         9420    0.00602608
         9440    0.00602608
         9460    0.00602608
         9480    0.00602607
         9500    0.00602607
         9520    0.00602607
         9540    0.00602606
         9560    0.00602606
         9580    0.00602606
         9600    0.00602605
         9620    0.00602605
         9640    0.00602605
         9660    0.00602604
         9680    0.00602604
         9700    0.00602604
         9720    0.00602603
         9740    0.00602603
         9760    0.00602602
         9780    0.00602602
         9800    0.00602602
         9820    0.00602601
         9840    0.00602601
         9860    0.00602601
         9880      0.006026
         9900      0.006026
         9920      0.006026
         9940    0.00602599
         9960    0.00602599
         9980    0.00602598
        10000    0.00602598
        10020    0.00602598
        10040    0.00602597
        10060    0.00602597
        10080    0.00602596
        10100    0.00602596
        10120    0.00602596
        10140    0.00602595
        10160    0.00602595
        10180    0.00602594
        10200    0.00602594
        10220    0.00602594
        10240    0.00602593
        10260    0.00602593
        10280    0.00602592
        10300    0.00602592
        10320    0.00602591
        10340    0.00602591
        10360    0.00602591
        10380     0.0060259
        10400     0.0060259
        10420    0.00602589
        10440    0.00602589
        10460    0.00602588
        10480    0.00602588
        10500    0.00602587
        10520    0.00602587
        10540    0.00602587
        10560    0.00602586
        10580    0.00602586
        10600    0.00602585
        10620    0.00602585
        10640    0.00602584
        10660    0.00602584
        10680    0.00602583
        10700    0.00602583
        10720    0.00602582
        10740    0.00602582
        10760    0.00602581
        10780    0.00602581
        10800     0.0060258
        10820     0.0060258
        10840    0.00602579
        10860    0.00602579
        10880    0.00602578
        10900    0.00602578
        10920    0.00602577
        10940    0.00602577
        10960    0.00602576
        10980    0.00602576
        11000    0.00602575
        11020    0.00602575
        11040    0.00602574
        11060    0.00602574
        11080    0.00602573
        11100    0.00602573
        11120    0.00602572
        11140    0.00602572
        11160    0.00602571
        11180    0.00602571
        11200     0.0060257
        11220    0.00602569
        11240    0.00602569
        11260    0.00602568
        11280    0.00602568
        11300    0.00602567
        11320    0.00602567
        11340    0.00602566
        11360    0.00602566
        11380    0.00602565
        11400    0.00602564
        11420    0.00602564
        11440    0.00602563
        11460    0.00602563
        11480    0.00602562
        11500    0.00602561
        11520    0.00602561
        11540     0.0060256
        11560     0.0060256
        11580    0.00602559
        11600    0.00602558
        11620    0.00602558
        11640    0.00602557
        11660    0.00602557
        11680    0.00602556
        11700    0.00602555
        11720    0.00602555
        11740    0.00602554
        11760    0.00602553
        11780    0.00602553
        11800    0.00602552
        11820    0.00602552
        11840    0.00602551
        11860     0.0060255
        11880     0.0060255
        11900    0.00602549
        11920    0.00602548
        11940    0.00602548
        11960    0.00602547
        11980    0.00602546
        12000    0.00602546
        12020    0.00602545
        12040    0.00602544
        12060    0.00602544
        12080    0.00602543
        12100    0.00602542
        12120    0.00602542
        12140    0.00602541
        12160     0.0060254
        12180    0.00602539
        12200    0.00602539
        12220    0.00602538
        12240    0.00602537
        12260    0.00602537
        12280    0.00602536
        12300    0.00602535
        12320    0.00602534
        12340    0.00602534
        12360    0.00602533
        12380    0.00602532
        12400    0.00602531
        12420    0.00602531
        12440     0.0060253
        12460    0.00602529
        12480    0.00602528
        12500    0.00602528
        12520    0.00602527
        12540    0.00602526
        12560    0.00602525
        12580    0.00602525
        12600    0.00602524
        12620    0.00602523
        12640    0.00602522
        12660    0.00602521
        12680    0.00602521
        12700     0.0060252
        12720    0.00602519
        12740    0.00602518
        12760    0.00602517
        12780    0.00602517
        12800    0.00602516
        12820    0.00602515
        12840    0.00602514
        12860    0.00602513
        12880    0.00602513
        12900    0.00602512
        12920    0.00602511
        12940     0.0060251
        12960    0.00602509
        12980    0.00602508
        13000    0.00602507
        13020    0.00602507
        13040    0.00602506
        13060    0.00602505
        13080    0.00602504
        13100    0.00602503
        13120    0.00602502
        13140    0.00602501
        13160    0.00602501
        13180      0.006025
        13200    0.00602499
        13220    0.00602498
        13240    0.00602497
        13260    0.00602496
        13280    0.00602495
        13300    0.00602494
        13320    0.00602493
        13340    0.00602492
        13360    0.00602491
        13380     0.0060249
        13400     0.0060249
        13420    0.00602489
        13440    0.00602488
        13460    0.00602487
        13480    0.00602486
        13500    0.00602485
        13520    0.00602484
        13540    0.00602483
        13560    0.00602482
        13580    0.00602481
        13600     0.0060248
        13620    0.00602479
        13640    0.00602478
        13660    0.00602477
        13680    0.00602476
        13700    0.00602475
        13720    0.00602474
        13740    0.00602473
        13760    0.00602472
        13780    0.00602471
        13800     0.0060247
        13820    0.00602469
        13840    0.00602468
        13860    0.00602467
        13880    0.00602466
        13900    0.00602465
        13920    0.00602464
        13940    0.00602463
        13960    0.00602462
        13980     0.0060246
        14000    0.00602459
        14020    0.00602458
        14040    0.00602457
        14060    0.00602456
        14080    0.00602455
        14100    0.00602454
        14120    0.00602453
        14140    0.00602452
        14160    0.00602451
        14180     0.0060245
        14200    0.00602448
        14220    0.00602447
        14240    0.00602446
        14260    0.00602445
        14280    0.00602444
        14300    0.00602443
        14320    0.00602442
        14340    0.00602441
        14360    0.00602439
        14380    0.00602438
        14400    0.00602437
        14420    0.00602436
        14440    0.00602435
        14460    0.00602434
        14480    0.00602432
        14500    0.00602431
        14520     0.0060243
        14540    0.00602429
        14560    0.00602428
        14580    0.00602426
        14600    0.00602425
        14620    0.00602424
        14640    0.00602423
        14660    0.00602422
        14680     0.0060242
        14700    0.00602419
        14720    0.00602418
        14740    0.00602417
        14760    0.00602415
        14780    0.00602414
        14800    0.00602413
        14820    0.00602412
        14840     0.0060241
        14860    0.00602409
        14880    0.00602408
        14900    0.00602406
        14920    0.00602405
        14940    0.00602404
        14960    0.00602403
        14980    0.00602401
        15000      0.006024
        15020    0.00602399
        15040    0.00602397
        15060    0.00602396
        15080    0.00602395
        15100    0.00602393
        15120    0.00602392
        15140    0.00602391
        15160    0.00602389
        15180    0.00602388
        15200    0.00602386
        15220    0.00602385
        15240    0.00602384
        15260    0.00602382
        15280    0.00602381
        15300     0.0060238
        15320    0.00602378
        15340    0.00602377
        15360    0.00602375
        15380    0.00602374
        15400    0.00602372
        15420    0.00602371
        15440     0.0060237
        15460    0.00602368
        15480    0.00602367
        15500    0.00602365
        15520    0.00602364
        15540    0.00602362
        15560    0.00602361
        15580    0.00602359
        15600    0.00602358
        15620    0.00602356
        15640    0.00602355
        15660    0.00602353
        15680    0.00602352
        15700     0.0060235
        15720    0.00602349
        15740    0.00602347
        15760    0.00602346
        15780    0.00602344
        15800    0.00602343
        15820    0.00602341
        15840     0.0060234
        15860    0.00602338
        15880    0.00602337
        15900    0.00602335
        15920    0.00602334
        15940    0.00602332
        15960     0.0060233
        15980    0.00602329
        16000    0.00602327
        16020    0.00602326
        16040    0.00602324
        16060    0.00602322
        16080    0.00602321
        16100    0.00602319
        16120    0.00602317
        16140    0.00602316
        16160    0.00602314
        16180    0.00602313
        16200    0.00602311
        16220    0.00602309
        16240    0.00602308
        16260    0.00602306
        16280    0.00602304
        16300    0.00602303
        16320    0.00602301
        16340    0.00602299
        16360    0.00602297
        16380    0.00602296
        16400    0.00602294
        16420    0.00602292
        16440    0.00602291
        16460    0.00602289
        16480    0.00602287
        16500    0.00602285
        16520    0.00602284
        16540    0.00602282
        16560     0.0060228
        16580    0.00602278
        16600    0.00602276
        16620    0.00602275
        16640    0.00602273
        16660    0.00602271
        16680    0.00602269
        16700    0.00602267
        16720    0.00602266
        16740    0.00602264
        16760    0.00602262
        16780     0.0060226
        16800    0.00602258
        16820    0.00602256
        16840    0.00602255
        16860    0.00602253
        16880    0.00602251
        16900    0.00602249
        16920    0.00602247
        16940    0.00602245
        16960    0.00602243
        16980    0.00602241
        17000     0.0060224
        17020    0.00602238
        17040    0.00602236
        17060    0.00602234
        17080    0.00602232
        17100     0.0060223
        17120    0.00602228
        17140    0.00602226
        17160    0.00602224
        17180    0.00602222
        17200     0.0060222
        17220    0.00602218
        17240    0.00602216
        17260    0.00602214
        17280    0.00602212
        17300     0.0060221
        17320    0.00602208
        17340    0.00602206
        17360    0.00602204
        17380    0.00602202
        17400      0.006022
        17420    0.00602198
        17440    0.00602196
        17460    0.00602194
        17480    0.00602192
        17500    0.00602189
        17520    0.00602187
        17540    0.00602185
        17560    0.00602183
        17580    0.00602181
        17600    0.00602179
        17620    0.00602177
        17640    0.00602175
        17660    0.00602172
        17680     0.0060217
        17700    0.00602168
        17720    0.00602166
        17740    0.00602164
        17760    0.00602162
        17780    0.00602159
        17800    0.00602157
        17820    0.00602155
        17840    0.00602153
        17860    0.00602151
        17880    0.00602148
        17900    0.00602146
        17920    0.00602144
        17940    0.00602142
        17960    0.00602139
        17980    0.00602137
        18000    0.00602135
        18020    0.00602133
        18040     0.0060213
        18060    0.00602128
        18080    0.00602126
        18100    0.00602123
        18120    0.00602121
        18140    0.00602119
        18160    0.00602116
        18180    0.00602114
        18200    0.00602112
        18220    0.00602109
        18240    0.00602107
        18260    0.00602105
        18280    0.00602102
        18300      0.006021
        18320    0.00602098
        18340    0.00602095
        18360    0.00602093
        18380     0.0060209
        18400    0.00602088
        18420    0.00602085
        18440    0.00602083
        18460    0.00602081
        18480    0.00602078
        18500    0.00602076
        18520    0.00602073
        18540    0.00602071
        18560    0.00602068
        18580    0.00602066
        18600    0.00602063
        18620    0.00602061
        18640    0.00602058
        18660    0.00602056
        18680    0.00602053
        18700    0.00602051
        18720    0.00602048
        18740    0.00602045
        18760    0.00602043
        18780     0.0060204
        18800    0.00602038
        18820    0.00602035
        18840    0.00602033
        18860     0.0060203
        18880    0.00602027
        18900    0.00602025
        18920    0.00602022
        18940    0.00602019
        18960    0.00602017
        18980    0.00602014
        19000    0.00602011
        19020    0.00602009
        19040    0.00602006
        19060    0.00602003
        19080    0.00602001
        19100    0.00601998
        19120    0.00601995
        19140    0.00601992
        19160     0.0060199
        19180    0.00601987
        19200    0.00601984
        19220    0.00601981
        19240    0.00601979
        19260    0.00601976
        19280    0.00601973
        19300     0.0060197
        19320    0.00601968
        19340    0.00601965
        19360    0.00601962
        19380    0.00601959
        19400    0.00601956
        19420    0.00601953
        19440     0.0060195
        19460    0.00601948
        19480    0.00601945
        19500    0.00601942
        19520    0.00601939
        19540    0.00601936
        19560    0.00601933
        19580     0.0060193
        19600    0.00601927
        19620    0.00601924
        19640    0.00601921
        19660    0.00601918
        19680    0.00601915
        19700    0.00601913
        19720     0.0060191
        19740    0.00601907
        19760    0.00601904
        19780    0.00601901
        19800    0.00601897
        19820    0.00601894
        19840    0.00601891
        19860    0.00601888
        19880    0.00601885
        19900    0.00601882
        19920    0.00601879
        19940    0.00601876
        19960    0.00601873
        19980     0.0060187
        20000    0.00601867
        20020    0.00601864
        20040    0.00601861
        20060    0.00601857
        20080    0.00601854
        20100    0.00601851
        20120    0.00601848
        20140    0.00601845
        20160    0.00601842
        20180    0.00601838
        20200    0.00601835
        20220    0.00601832
        20240    0.00601829
        20260    0.00601825
        20280    0.00601822
        20300    0.00601819
        20320    0.00601816
        20340    0.00601812
        20360    0.00601809
        20380    0.00601806
        20400    0.00601803
        20420    0.00601799
        20440    0.00601796
        20460    0.00601793
        20480    0.00601789
        20500    0.00601786
        20520    0.00601782
        20540    0.00601779
        20560    0.00601776
        20580    0.00601772
        20600    0.00601769
        20620    0.00601766
        20640    0.00601762
        20660    0.00601759
        20680    0.00601755
        20700    0.00601752
        20720    0.00601748
        20740    0.00601745
        20760    0.00601741
        20780    0.00601738
        20800    0.00601734
        20820    0.00601731
        20840    0.00601727
        20860    0.00601724
        20880     0.0060172
        20900    0.00601717
        20920    0.00601713
        20940     0.0060171
        20960    0.00601706
        20980    0.00601702
        21000    0.00601699
        21020    0.00601695
        21040    0.00601692
        21060    0.00601688
        21080    0.00601684
        21100    0.00601681
        21120    0.00601677
        21140    0.00601673
        21160     0.0060167
        21180    0.00601666
        21200    0.00601662
        21220    0.00601659
        21240    0.00601655
        21260    0.00601651
        21280    0.00601647
        21300    0.00601644
        21320     0.0060164
        21340    0.00601636
        21360    0.00601632