# Probe 0 (0.05 0.05 0.005)
#       Probe             0
#        Time
           20     0.0123506
           40     0.0123506
           60     0.0123506
           80     0.0123506
          100     0.0123506
          120     0.0123506
          140     0.0123506
          160     0.0123506
          180     0.0123506
          200     0.0123506
          220     0.0123506
          240     0.0123506
          260     0.0123506
          280     0.0123506
          300     0.0123506
          320     0.0123506
          340     0.0123506
          360     0.0123506
          380     0.0123506
          400     0.0123506
          420     0.0123506
          440     0.0123506
          460     0.0123506
          480     0.0123506
          500     0.0123506
          520     0.0123506
          540     0.0123506
          560     0.0123506
          580     0.0123506
          600     0.0123506
          620     0.0123506
          640     0.0123506
          660     0.0123506
          680     0.0123506
          700     0.0123506
          720     0.0123506
          740     0.0123506
          760     0.0123506
          780     0.0123506
          800     0.0123506
          820     0.0123506
          840     0.0123506
          860     0.0123506
          880     0.0123506
          900     0.0123506
          920     0.0123506
          940     0.0123506
          960     0.0123506
          980     0.0123506
         1000     0.0123506
         1020     0.0123506
         1040     0.0123506
         1060     0.0123506
         1080     0.0123506
         1100     0.0123506
         1120     0.0123506
         1140     0.0123506
         1160     0.0123506
         1180     0.0123506
         1200     0.0123506
         1220     0.0123506
         1240     0.0123506
         1260     0.0123506
         1280     0.0123506
         1300     0.0123506
         1320     0.0123506
         1340     0.0123506
         1360     0.0123506
         1380     0.0123506
         1400     0.0123506
         1420     0.0123506
         1440     0.0123506
         1460     0.0123506
         1480     0.0123506
         1500     0.0123506
         1520     0.0123506
         1540     0.0123506
         1560     0.0123506
         1580     0.0123506
         1600     0.0123506
         1620     0.0123506
         1640     0.0123506
         1660     0.0123506
         1680     0.0123506
         1700     0.0123505
         1720     0.0123505
         1740     0.0123505
         1760     0.0123505
         1780     0.0123505
         1800     0.0123505
         1820     0.0123505
         1840     0.0123505
         1860     0.0123505
         1880     0.0123505
         1900     0.0123505
         1920     0.0123505
         1940     0.0123505
         1960     0.0123505
         1980     0.0123505
         2000     0.0123505
         2020     0.0123505
         2040     0.0123505
         2060     0.0123505
         2080     0.0123505
         2100     0.0123505
         2120     0.0123505
         2140     0.0123505
         2160     0.0123505
         2180     0.0123505
         2200     0.0123505
         2220     0.0123505
         2240     0.0123505
         2260     0.0123505
         2280     0.0123505
         2300     0.0123505
         2320     0.0123505
         2340     0.0123505
         2360     0.0123505
         2380     0.0123505
         2400     0.0123505
         2420     0.0123505
         2440     0.0123505
         2460     0.0123505
         2480     0.0123505
         2500     0.0123505
         2520     0.0123505
         2540     0.0123505
         2560     0.0123505
         2580     0.0123505
         2600     0.0123505
         2620     0.0123505
         2640     0.0123505
         2660     0.0123505
         2680     0.0123505
         2700     0.0123505
         2720     0.0123505
         2740     0.0123505
         2760     0.0123505
         2780     0.0123505
         2800     0.0123505
         2820     0.0123505
         2840     0.0123505
         2860     0.0123505
         2880     0.0123505
         2900     0.0123505
         2920     0.0123505
         2940     0.0123505
         2960     0.0123505
         2980     0.0123505
         3000     0.0123505
         3020     0.0123505
         3040     0.0123505
         3060     0.0123505
         3080     0.0123505
         3100     0.0123505
         3120     0.0123505
         3140     0.0123505
         3160     0.0123505
         3180     0.0123505
         3200     0.0123505
         3220     0.0123505
         3240     0.0123505
         3260     0.0123505
         3280     0.0123505
         3300     0.0123505
         3320     0.0123505
         3340     0.0123505
         3360     0.0123505
         3380     0.0123505
         3400     0.0123505
         3420     0.0123505
         3440     0.0123505
         3460     0.0123505
         3480     0.0123505
         3500     0.0123505
         3520     0.0123505
         3540     0.0123505
         3560     0.0123505
         3580     0.0123505
         3600     0.0123505
         3620     0.0123505
         3640     0.0123505
         3660     0.0123505
         3680     0.0123505
         3700     0.0123505
         3720     0.0123505
         3740     0.0123505
         3760     0.0123505
         3780     0.0123505
         3800     0.0123505
         3820     0.0123505
         3840     0.0123505
         3860     0.0123505
         3880     0.0123505
         3900     0.0123505
         3920     0.0123505
         3940     0.0123505
         3960     0.0123505
         3980     0.0123505
         4000     0.0123505
         4020     0.0123505
         4040     0.0123505
         4060     0.0123505
         4080     0.0123505
         4100     0.0123505
         4120     0.0123505
         4140     0.0123505
         4160     0.0123505
         4180     0.0123505
         4200     0.0123505
         4220     0.0123505
         4240     0.0123505
         4260     0.0123505
         4280     0.0123505
         4300     0.0123505
         4320     0.0123505
         4340     0.0123505
         4360     0.0123505
         4380     0.0123505
         4400     0.0123505
         4420     0.0123505
         4440     0.0123505
         4460     0.0123505
         4480     0.0123505
         4500     0.0123505
         4520     0.0123505
         4540     0.0123505
         4560     0.0123505
         4580     0.0123505
         4600     0.0123505
         4620     0.0123505
         4640     0.0123505
         4660     0.0123505
         4680     0.0123505
         4700     0.0123505
         4720     0.0123505
         4740     0.0123505
         4760     0.0123505
         4780     0.0123505
         4800     0.0123505
         4820     0.0123505
         4840     0.0123505
         4860     0.0123504
         4880     0.0123504
         4900     0.0123504
         4920     0.0123504
         4940     0.0123504
         4960     0.0123504
         4980     0.0123504
         5000     0.0123504
         5020     0.0123504
         5040     0.0123504
         5060     0.0123504
         5080     0.0123504
         5100     0.0123504
         5120     0.0123504
         5140     0.0123504
         5160     0.0123504
         5180     0.0123504
         5200     0.0123504
         5220     0.0123504
         5240     0.0123504
         5260     0.0123504
         5280     0.0123504
         5300     0.0123504
         5320     0.0123504
         5340     0.0123504
         5360     0.0123504
         5380     0.0123504
         5400     0.0123504
         5420     0.0123504
         5440     0.0123504
         5460     0.0123504
         5480     0.0123504
         5500     0.0123504
         5520     0.0123504
         5540     0.0123504
         5560     0.0123504
         5580     0.0123504
         5600     0.0123504
         5620     0.0123504
         5640     0.0123504
         5660     0.0123504
         5680     0.0123504
         5700     0.0123504
         5720     0.0123504
         5740     0.0123504
         5760     0.0123503
         5780     0.0123503
         5800     0.0123503
         5820     0.0123503
         5840     0.0123503
         5860     0.0123503
         5880     0.0123503
         5900     0.0123503
         5920     0.0123503
         5940     0.0123503
         5960     0.0123503
         5980     0.0123503
         6000     0.0123503
         6020     0.0123503
         6040     0.0123503
         6060     0.0123503
         6080     0.0123503
         6100     0.0123503
         6120     0.0123503
         6140     0.0123503
         6160     0.0123503
         6180     0.0123503
         6200     0.0123503
         6220     0.0123503
         6240     0.0123503
         6260     0.0123503
         6280     0.0123503
         6300     0.0123503
         6320     0.0123503
         6340     0.0123503
         6360     0.0123503
         6380     0.0123502
         6400     0.0123502
         6420     0.0123502
         6440     0.0123502
         6460     0.0123502
         6480     0.0123502
         6500     0.0123502
         6520     0.0123502
         6540     0.0123502
         6560     0.0123502
         6580     0.0123502
         6600     0.0123502
         6620     0.0123502
         6640     0.0123502
         6660     0.0123502
         6680     0.0123502
         6700     0.0123502
         6720     0.0123502
         6740     0.0123502
         6760     0.0123502
         6780     0.0123502
         6800     0.0123502
         6820     0.0123502
         6840     0.0123501
         6860     0.0123501
         6880     0.0123501
         6900     0.0123501
         6920     0.0123501
         6940     0.0123501
         6960     0.0123501
         6980     0.0123501
         7000     0.0123501
         7020     0.0123501
         7040     0.0123501
         7060     0.0123501
         7080     0.0123501
         7100     0.0123501
         7120     0.0123501
         7140     0.0123501
         7160     0.0123501
         7180     0.0123501
         7200     0.0123501
         7220     0.0123501
         7240       0.01235
         7260       0.01235
         7280       0.01235
         7300       0.01235
         7320       0.01235
         7340       0.01235
         7360       0.01235
         7380       0.01235
         7400       0.01235
         7420       0.01235
         7440       0.01235
         7460       0.01235
         7480       0.01235
         7500       0.01235
         7520       0.01235
         7540       0.01235
         7560       0.01235
         7580     0.0123499
         7600     0.0123499
         7620     0.0123499
         7640     0.0123499
         7660     0.0123499
         7680     0.0123499
         7700     0.0123499
         7720     0.0123499
         7740     0.0123499
         7760     0.0123499
         7780     0.0123499
         7800     0.0123499
         7820     0.0123499
         7840     0.0123499
         7860     0.0123498
         7880     0.0123498
         7900     0.0123498
         7920     0.0123498
         7940     0.0123498
         7960     0.0123498
         7980     0.0123498
         8000     0.0123498
         8020     0.0123498
         8040     0.0123498
         8060     0.0123498
         8080     0.0123498
         8100     0.0123498
         8120     0.0123498
         8140     0.0123497
         8160     0.0123497
         8180     0.0123497
         8200     0.0123497
         8220     0.0123497
         8240     0.0123497
         8260     0.0123497
         8280     0.0123497
         8300     0.0123497
         8320     0.0123497
         8340     0.0123497
         8360     0.0123497
         8380     0.0123496
         8400     0.0123496
         8420     0.0123496
         8440     0.0123496
         8460     0.0123496
         8480     0.0123496
         8500     0.0123496
         8520     0.0123496
         8540     0.0123496
         8560     0.0123496
         8580     0.0123496
         8600     0.0123495
         8620     0.0123495
         8640     0.0123495
         8660     0.0123495
         8680     0.0123495
         8700     0.0123495
         8720     0.0123495
         8740     0.0123495
         8760     0.0123495
         8780     0.0123495
         8800     0.0123494
         8820     0.0123494
         8840     0.0123494
         8860     0.0123494
         8880     0.0123494
         8900     0.0123494
         8920     0.0123494
         8940     0.0123494
         8960     0.0123494
         8980     0.0123494
         9000     0.0123493
         9020     0.0123493
         9040     0.0123493
         9060     0.0123493
         9080     0.0123493
         9100     0.0123493
         9120     0.0123493
         9140     0.0123493
         9160     0.0123493
         9180     0.0123492
         9200     0.0123492
         9220     0.0123492
         9240     0.0123492
         9260     0.0123492
         9280     0.0123492
         9300     0.0123492
         9320     0.0123492
         9340     0.0123491
         9360     0.0123491
         9380     0.0123491
         9400     0.0123491
         9420     0.0123491
         9440     0.0123491
         9460     0.0123491
         9480     0.0123491
         9500     0.0123491
         9520      0.012349
         9540      0.012349
         9560      0.012349
         9580      0.012349
         9600      0.012349
         9620      0.012349
         9640      0.012349
         9660     0.0123489
         9680     0.0123489
         9700     0.0123489
         9720     0.0123489
         9740     0.0123489
         9760     0.0123489
         9780     0.0123489
         9800     0.0123489
         9820     0.0123488
         9840     0.0123488
         9860     0.0123488
         9880     0.0123488
         9900     0.0123488
         9920     0.0123488
         9940     0.0123488
         9960     0.0123487
         9980     0.0123487
        10000     0.0123487
        10020     0.0123487
        10040     0.0123487
        10060     0.0123487
        10080     0.0123486
        10100     0.0123486
        10120     0.0123486
        10140     0.0123486
        10160     0.0123486
        10180     0.0123486
        10200     0.0123486
        10220     0.0123485
        10240     0.0123485
        10260     0.0123485
        10280     0.0123485
        10300     0.0123485
        10320     0.0123485
        10340     0.0123484
        10360     0.0123484
        10380     0.0123484
        10400     0.0123484
        10420     0.0123484
        10440     0.0123484
        10460     0.0123483
        10480     0.0123483
        10500     0.0123483
        10520     0.0123483
        10540     0.0123483
        10560     0.0123483
        10580     0.0123482
        10600     0.0123482
        10620     0.0123482
        10640     0.0123482
        10660     0.0123482
        10680     0.0123482
        10700     0.0123481
        10720     0.0123481
        10740     0.0123481
        10760     0.0123481
        10780     0.0123481
        10800      0.012348
        10820      0.012348
        10840      0.012348
        10860      0.012348
        10880      0.012348
        10900     0.0123479
        10920     0.0123479
        10940     0.0123479
        10960     0.0123479
        10980     0.0123479
        11000     0.0123479
        11020     0.0123478
        11040     0.0123478
        11060     0.0123478
        11080     0.0123478
        11100     0.0123478
        11120     0.0123477
        11140     0.0123477
        11160     0.0123477
        11180     0.0123477
        11200     0.0123477
        11220     0.0123476
        11240     0.0123476
        11260     0.0123476
        11280     0.0123476
        11300     0.0123475
        11320     0.0123475
        11340     0.0123475
        11360     0.0123475
        11380     0.0123475
        11400     0.0123474
        11420     0.0123474
        11440     0.0123474
        11460     0.0123474
        11480     0.0123473
        11500     0.0123473
        11520     0.0123473
        11540     0.0123473
        11560     0.0123473
        11580     0.0123472
        11600     0.0123472
        11620     0.0123472
        11640     0.0123472
        11660     0.0123471
        11680     0.0123471
        11700     0.0123471
        11720     0.0123471
        11740      0.012347
        11760      0.012347
        11780      0.012347
        11800      0.012347
        11820      0.012347
        11840     0.0123469
        11860     0.0123469
        11880     0.0123469
        11900     0.0123469
        11920     0.0123468
        11940     0.0123468
        11960     0.0123468
        11980     0.0123468
        12000     0.0123467
        12020     0.0123467
        12040     0.0123467
        12060     0.0123467
        12080     0.0123466
        12100     0.0123466
        12120     0.0123466
        12140     0.0123465
        12160     0.0123465
        12180     0.0123465
        12200     0.0123465
        12220     0.0123464
        12240     0.0123464
        12260     0.0123464
        12280     0.0123464
        12300     0.0123463
        12320     0.0123463
        12340     0.0123463
        12360     0.0123462
        12380     0.0123462
        12400     0.0123462
        12420     0.0123462
        12440     0.0123461
        12460     0.0123461
        12480     0.0123461
        12500      0.012346
        12520      0.012346
        12540      0.012346
        12560      0.012346
        12580     0.0123459
        12600     0.0123459
        12620     0.0123459
        12640     0.0123458
        12660     0.0123458
        12680     0.0123458
        12700     0.0123458
        12720     0.0123457
        12740     0.0123457
        12760     0.0123457
        12780     0.0123456
        12800     0.0123456
        12820     0.0123456
        12840     0.0123455
        12860     0.0123455
        12880     0.0123455
        12900     0.0123454
        12920     0.0123454
        12940     0.0123454
        12960     0.0123453
        12980     0.0123453
        13000     0.0123453
        13020     0.0123453
        13040     0.0123452
        13060     0.0123452
        13080     0.0123452
        13100     0.0123451
        13120     0.0123451
        13140     0.0123451
        13160      0.012345
        13180      0.012345
        13200      0.012345
        13220     0.0123449
        13240     0.0123449
        13260     0.0123448
        13280     0.0123448
        13300     0.0123448
        13320     0.0123447
        13340     0.0123447
        13360     0.0123447
        13380     0.0123446
        13400     0.0123446
        13420     0.0123446
        13440     0.0123445
        13460     0.0123445
        13480     0.0123445
        13500     0.0123444
        13520     0.0123444
        13540     0.0123444
        13560     0.0123443
        13580     0.0123443
        13600     0.0123442
        13620     0.0123442
        13640     0.0123442
        13660     0.0123441
        13680     0.0123441
        13700     0.0123441
        13720      0.012344
        13740      0.012344
        13760     0.0123439
        13780     0.0123439
        13800     0.0123439
        13820     0.0123438
        13840     0.0123438
        13860     0.0123437
        13880     0.0123437
        13900     0.0123437
        13920     0.0123436
        13940     0.0123436
        13960     0.0123435
        13980     0.0123435
        14000     0.0123435
        14020     0.0123434
        14040     0.0123434
        14060     0.0123433
        14080     0.0123433
        14100     0.0123433
        14120     0.0123432
        14140     0.0123432
        14160     0.0123431
        14180     0.0123431
        14200     0.0123431
        14220      0.012343
        14240      0.012343
        14260     0.0123429
        14280     0.0123429
        14300     0.0123428
        14320     0.0123428
        14340     0.0123428
        14360     0.0123427
        14380     0.0123427
        14400     0.0123426
        14420     0.0123426
        14440     0.0123425
        14460     0.0123425
        14480     0.0123424
        14500     0.0123424
        14520     0.0123424
        14540     0.0123423
        14560     0.0123423
        14580     0.0123422
        14600     0.0123422
        14620     0.0123421
        14640     0.0123421
        14660      0.012342
        14680      0.012342
        14700     0.0123419
        14720     0.0123419
        14740     0.0123418
        14760     0.0123418
        14780     0.0123417
        14800     0.0123417
        14820     0.0123417
        14840     0.0123416
        14860     0.0123416
        14880     0.0123415
        14900     0.0123415
        14920     0.0123414
        14940     0.0123414
        14960     0.0123413
        14980     0.0123413
        15000     0.0123412
        15020     0.0123412
        15040     0.0123411
        15060     0.0123411
        15080      0.012341
        15100      0.012341
        15120     0.0123409
        15140     0.0123409
        15160     0.0123408
        15180     0.0123408
        15200     0.0123407
        15220     0.0123407
        15240     0.0123406
        15260     0.0123405
        15280     0.0123405
        15300     0.0123404
        15320     0.0123404
        15340     0.0123403
        15360     0.0123403
        15380     0.0123402
        15400     0.0123402
        15420     0.0123401
        15440     0.0123401
        15460       0.01234
        15480       0.01234
        15500     0.0123399
        15520     0.0123398
        15540     0.0123398
        15560     0.0123397
        15580     0.0123397
        15600     0.0123396
        15620     0.0123396
        15640     0.0123395
        15660     0.0123395
        15680     0.0123394
        15700     0.0123393
        15720     0.0123393
        15740     0.0123392
        15760     0.0123392
        15780     0.0123391
        15800     0.0123391
        15820      0.012339
        15840     0.0123389
        15860     0.0123389
        15880     0.0123388
        15900     0.0123388
        15920     0.0123387
        15940     0.0123386
        15960     0.0123386
        15980     0.0123385
        16000     0.0123385
        16020     0.0123384
        16040     0.0123383
        16060     0.0123383
        16080     0.0123382
        16100     0.0123382
        16120     0.0123381
        16140      0.012338
        16160      0.012338
        16180     0.0123379
        16200     0.0123378
        16220     0.0123378
        16240     0.0123377
        16260     0.0123377
        16280     0.0123376
        16300     0.0123375
        16320     0.0123375
        16340     0.0123374
        16360     0.0123373
        16380     0.0123373
        16400     0.0123372
        16420     0.0123371
        16440     0.0123371
        16460      0.012337
        16480     0.0123369
        16500     0.0123369
        16520     0.0123368
        16540     0.0123367
        16560     0.0123367
        16580     0.0123366
        16600     0.0123365
        16620     0.0123365
        16640     0.0123364
        16660     0.0123363
        16680     0.0123363
        16700     0.0123362
        16720     0.0123361
        16740     0.0123361
        16760      0.012336
        16780     0.0123359
        16800     0.0123359
        16820     0.0123358
        16840     0.0123357
        16860     0.0123356
        16880     0.0123356
        16900     0.0123355
        16920     0.0123354
        16940     0.0123354
        16960     0.0123353
        16980     0.0123352
        17000     0.0123351
        17020     0.0123351
        17040      0.012335
        17060     0.0123349
        17080     0.0123349
        17100     0.0123348
        17120     0.0123347
        17140     0.0123346
        17160     0.0123346
        17180     0.0123345
        17200     0.0123344
        17220     0.0123343
        17240     0.0123343
        17260     0.0123342
        17280     0.0123341
        17300      0.012334
        17320      0.012334
        17340     0.0123339
        17360     0.0123338
        17380     0.0123337
        17400     0.0123336
        17420     0.0123336
        17440     0.0123335
        17460     0.0123334
        17480     0.0123333
        17500     0.0123332
        17520     0.0123332
        17540     0.0123331
        17560      0.012333
        17580     0.0123329
        17600     0.0123329
        17620     0.0123328
        17640     0.0123327
        17660     0.0123326
        17680     0.0123325
        17700     0.0123324
        17720     0.0123324
        17740     0.0123323
        17760     0.0123322
        17780     0.0123321
        17800      0.012332
        17820     0.0123319
        17840     0.0123319
        17860     0.0123318
        17880     0.0123317
        17900     0.0123316
        17920     0.0123315
        17940     0.0123314
        17960     0.0123314
        17980     0.0123313
        18000     0.0123312
        18020     0.0123311
        18040      0.012331
        18060     0.0123309
        18080     0.0123308
        18100     0.0123308
        18120     0.0123307
        18140     0.0123306
        18160     0.0123305
        18180     0.0123304
        18200     0.0123303
        18220     0.0123302
        18240     0.0123301
        18260       0.01233
        18280       0.01233
        18300     0.0123299
        18320     0.0123298
        18340     0.0123297
        18360     0.0123296
        18380     0.0123295
        18400     0.0123294
        18420     0.0123293
        18440     0.0123292
        18460     0.0123291
        18480      0.012329
        18500     0.0123289
        18520     0.0123289
        18540     0.0123288
        18560     0.0123287
        18580     0.0123286
        18600     0.0123285
        18620     0.0123284
        18640     0.0123283
        18660     0.0123282
        18680     0.0123281
        18700      0.012328
        18720     0.0123279
        18740     0.0123278
        18760     0.0123277
        18780     0.0123276
        18800     0.0123275
        18820     0.0123274
        18840     0.0123273
        18860     0.0123272
        18880     0.0123271
        18900      0.012327
        18920     0.0123269
        18940     0.0123268
        18960     0.0123267
        18980     0.0123266
        19000     0.0123265
        19020     0.0123264
        19040     0.0123263
        19060     0.0123262
        19080     0.0123261
        19100      0.012326
        19120     0.0123259
        19140     0.0123258
        19160     0.0123257
        19180     0.0123256
        19200     0.0123255
        19220     0.0123254
        19240     0.0123253
        19260     0.0123252
        19280     0.0123251
        19300      0.012325
        19320     0.0123249
        19340     0.0123247
        19360     0.0123246
        19380     0.0123245
        19400     0.0123244
        19420     0.0123243
        19440     0.0123242
        19460     0.0123241
        19480      0.012324
        19500     0.0123239
        19520     0.0123238
        19540     0.0123237
        19560     0.0123236
        19580     0.0123234
        19600     0.0123233
        19620     0.0123232
        19640     0.0123231
        19660      0.012323
        19680     0.0123229
        19700     0.0123228
        19720     0.0123227
        19740     0.0123225
        19760     0.0123224
        19780     0.0123223
        19800     0.0123222
        19820     0.0123221
        19840      0.012322
        19860     0.0123219
        19880     0.0123217
        19900     0.0123216
        19920     0.0123215
        19940     0.0123214
        19960     0.0123213
        19980     0.0123212
        20000      0.012321
        20020     0.0123209
        20040     0.0123208
        20060     0.0123207
        20080     0.0123206
        20100     0.0123205
        20120     0.0123203
        20140     0.0123202
        20160     0.0123201
        20180       0.01232
        20200     0.0123198
        20220     0.0123197
        20240     0.0123196
        20260     0.0123195
        20280     0.0123194
        20300     0.0123192
        20320     0.0123191
        20340      0.012319
        20360     0.0123189
        20380     0.0123187
        20400     0.0123186
        20420     0.0123185
        20440     0.0123184
        20460     0.0123182
        20480     0.0123181
        20500      0.012318
        20520     0.0123179
        20540     0.0123177
        20560     0.0123176
        20580     0.0123175
        20600     0.0123173
        20620     0.0123172
        20640     0.0123171
        20660      0.012317
        20680     0.0123168
        20700     0.0123167
        20720     0.0123166
        20740     0.0123164
        20760     0.0123163
        20780     0.0123162
        20800      0.012316
        20820     0.0123159
        20840     0.0123158
        20860     0.0123156
        20880     0.0123155
        20900     0.0123154
        20920     0.0123152
        20940     0.0123151
        20960      0.012315
        20980     0.0123148
        21000     0.0123147
        21020     0.0123146
        21040     0.0123144
        21060     0.0123143
        21080     0.0123141
        21100      0.012314
        21120     0.0123139
        21140     0.0123137
        21160     0.0123136
        21180     0.0123135
        21200     0.0123133
        21220     0.0123132
        21240      0.012313
        21260     0.0123129
        21280     0.0123127
        21300     0.0123126
        21320     0.0123125
        21340     0.0123123
        21360     0.0123122