# Probe 0 (0.05 0.05 0.005)
#       Probe             0
#        Time
           20   1.08094e-05
           40   1.08094e-05
           60   1.08094e-05
           80   1.08094e-05
          100   1.08094e-05
          120   1.08094e-05
          140   1.08094e-05
          160   1.08094e-05
          180   1.08094e-05
          200   1.08094e-05
          220   1.08094e-05
          240   1.08094e-05
          260   1.08094e-05
          280   1.08094e-05
          300   1.08094e-05
          320   1.08094e-05
          340   1.08094e-05
          360   1.08094e-05
          380   1.08094e-05
          400   1.08094e-05
          420   1.08094e-05
          440   1.08094e-05
          460   1.08094e-05
          480   1.08094e-05
          500   1.08094e-05
          520   1.08094e-05
          540   1.08094e-05
          560   1.08094e-05
          580   1.08094e-05
          600   1.08094e-05
          620   1.08094e-05
          640   1.08094e-05
          660   1.08094e-05
          680   1.08094e-05
          700   1.08094e-05
          720   1.08094e-05
          740   1.08094e-05
          760   1.08094e-05
          780   1.08094e-05
          800   1.08094e-05
          820   1.08094e-05
          840   1.08094e-05
          860   1.08094e-05
          880   1.08094e-05
          900   1.08094e-05
          920   1.08094e-05
          940   1.08094e-05
          960   1.08094e-05
          980   1.08094e-05
         1000   1.08094e-05
         1020   1.08094e-05
         1040   1.08094e-05
         1060   1.08094e-05
         1080   1.08094e-05
         1100   1.08094e-05
         1120   1.08094e-05
         1140   1.08094e-05
         1160   1.08094e-05
         1180   1.08094e-05
         1200   1.08094e-05
         1220   1.08094e-05
         1240   1.08094e-05
         1260   1.08094e-05
         1280   1.08094e-05
         1300   1.08094e-05
         1320   1.08094e-05
         1340   1.08094e-05
         1360   1.08094e-05
         1380   1.08094e-05
         1400   1.08094e-05
         1420   1.08094e-05
         1440   1.08094e-05
         1460   1.08094e-05
         1480   1.08094e-05
         1500   1.08094e-05
         1520   1.08094e-05
         1540   1.08094e-05
         1560   1.08094e-05
         1580   1.08094e-05
         1600   1.08094e-05
         1620   1.08094e-05
         1640   1.08094e-05
         1660   1.08094e-05
         1680   1.08094e-05
         1700   1.08094e-05
         1720   1.08094e-05
         1740   1.08094e-05
         1760   1.08094e-05
         1780   1.08094e-05
         1800   1.08094e-05
         1820   1.08094e-05
         1840   1.08094e-05
         1860   1.08094e-05
         1880   1.08094e-05
         1900   1.08094e-05
         1920   1.08094e-05
         1940   1.08094e-05
         1960   1.08094e-05
         1980   1.08094e-05
         2000   1.08094e-05
         2020   1.08094e-05
         2040   1.08094e-05
         2060   1.08094e-05
         2080   1.08094e-05
         2100   1.08094e-05
         2120   1.08094e-05
         2140   1.08094e-05
         2160   1.08094e-05
         2180   1.08094e-05
         2200   1.08094e-05
         2220   1.08094e-05
         2240   1.08094e-05
         2260   1.08094e-05
         2280   1.08094e-05
         2300   1.08094e-05
         2320   1.08094e-05
         2340   1.08094e-05
         2360   1.08094e-05
         2380   1.08094e-05
         2400   1.08094e-05
         2420   1.08094e-05
         2440   1.08094e-05
         2460   1.08094e-05
         2480   1.08094e-05
         2500   1.08094e-05
         2520   1.08094e-05
         2540   1.08094e-05
         2560   1.08094e-05
         2580   1.08094e-05
         2600   1.08094e-05
         2620   1.08094e-05
         2640   1.08094e-05
         2660   1.08094e-05
         2680   1.08094e-05
         2700   1.08094e-05
         2720   1.08094e-05
         2740   1.08094e-05
         2760   1.08094e-05
         2780   1.08094e-05
         2800   1.08094e-05
         2820   1.08094e-05
         2840   1.08094e-05
         2860   1.08094e-05
         2880   1.08094e-05
         2900   1.08094e-05
         2920   1.08094e-05
         2940   1.08094e-05
         2960   1.08094e-05
         2980   1.08094e-05
         3000   1.08094e-05
         3020   1.08094e-05
         3040   1.08094e-05
         3060   1.08094e-05
         3080   1.08094e-05
         3100   1.08094e-05
         3120   1.08094e-05
         3140   1.08094e-05
         3160   1.08094e-05
         3180   1.08094e-05
         3200   1.08094e-05
         3220   1.08094e-05
         3240   1.08094e-05
         3260   1.08094e-05
         3280   1.08094e-05
         3300   1.08094e-05
         3320   1.08094e-05
         3340   1.08094e-05
         3360   1.08094e-05
         3380   1.08094e-05
         3400   1.08094e-05
         3420   1.08094e-05
         3440   1.08094e-05
         3460   1.08094e-05
         3480   1.08094e-05
         3500   1.08094e-05
         3520   1.08094e-05
         3540   1.08094e-05
         3560   1.08094e-05
         3580   1.08094e-05
         3600   1.08094e-05
         3620   1.08094e-05
         3640   1.08094e-05
         3660   1.08094e-05
         3680   1.08094e-05
         3700   1.08094e-05
         3720   1.08094e-05
         3740   1.08094e-05
         3760   1.08094e-05
         3780   1.08094e-05
         3800   1.08094e-05
         3820   1.08094e-05
         3840   1.08094e-05
         3860   1.08094e-05
         3880   1.08094e-05
         3900   1.08094e-05
         3920   1.08094e-05
         3940   1.08094e-05
         3960   1.08094e-05
         3980   1.08094e-05
         4000   1.08094e-05
         4020   1.08094e-05
         4040   1.08094e-05
         4060   1.08094e-05
         4080   1.08093e-05
         4100   1.08093e-05
         4120   1.08093e-05
         4140   1.08093e-05
         4160   1.08093e-05
         4180   1.08093e-05
         4200   1.08093e-05
         4220   1.08093e-05
         4240   1.08093e-05
         4260   1.08093e-05
         4280   1.08093e-05
         4300   1.08093e-05
         4320   1.08093e-05
         4340   1.08093e-05
         4360   1.08093e-05
         4380   1.08093e-05
         4400   1.08093e-05
         4420   1.08093e-05
         4440   1.08093e-05
         4460   1.08093e-05
         4480   1.08093e-05
         4500   1.08093e-05
         4520   1.08093e-05
         4540   1.08093e-05
         4560   1.08093e-05
         4580   1.08093e-05
         4600   1.08093e-05
         4620   1.08093e-05
         4640   1.08093e-05
         4660   1.08093e-05
         4680   1.08093e-05
         4700   1.08093e-05
         4720   1.08093e-05
         4740   1.08093e-05
         4760   1.08093e-05
         4780   1.08093e-05
         4800   1.08093e-05
         4820   1.08093e-05
         4840   1.08093e-05
         4860   1.08093e-05
         4880   1.08093e-05
         4900   1.08093e-05
         4920   1.08093e-05
         4940   1.08093e-05
         4960   1.08093e-05
         4980   1.08093e-05
         5000   1.08093e-05
         5020   1.08093e-05
         5040   1.08093e-05
         5060   1.08093e-05
         5080   1.08093e-05
         5100   1.08093e-05
         5120   1.08093e-05
         5140   1.08093e-05
         5160   1.08093e-05
         5180   1.08093e-05
         5200   1.08093e-05
         5220   1.08093e-05
         5240   1.08093e-05
         5260   1.08093e-05
         5280   1.08093e-05
         5300   1.08093e-05
         5320   1.08093e-05
         5340   1.08093e-05
         5360   1.08093e-05
         5380   1.08093e-05
         5400   1.08093e-05
         5420   1.08093e-05
         5440   1.08093e-05
         5460   1.08093e-05
         5480   1.08093e-05
         5500   1.08093e-05
         5520   1.08093e-05
         5540   1.08093e-05
         5560   1.08093e-05
         5580   1.08093e-05
         5600   1.08093e-05
         5620   1.08093e-05
         5640   1.08093e-05
         5660   1.08093e-05
         5680   1.08093e-05
         5700   1.08093e-05
         5720   1.08093e-05
         5740   1.08093e-05
         5760   1.08093e-05
         5780   1.08093e-05
         5800   1.08093e-05
         5820   1.08093e-05
         5840   1.08093e-05
         5860   1.08093e-05
         5880   1.08093e-05
         5900   1.08093e-05
         5920   1.08093e-05
         5940   1.08093e-05
         5960   1.08093e-05
         5980   1.08093e-05
         6000   1.08093e-05
         6020   1.08093e-05
         6040   1.08093e-05
         6060   1.08093e-05
         6080   1.08093e-05
         6100   1.08093e-05
         6120   1.08092e-05
         6140   1.08092e-05
         6160   1.08092e-05
         6180   1.08092e-05
         6200   1.08092e-05
         6220   1.08092e-05
         6240   1.08092e-05
         6260   1.08092e-05
         6280   1.08092e-05
         6300   1.08092e-05
         6320   1.08092e-05
         6340   1.08092e-05
         6360   1.08092e-05
         6380   1.08092e-05
         6400   1.08092e-05
         6420   1.08092e-05
         6440   1.08092e-05
         6460   1.08092e-05
         6480   1.08092e-05
         6500   1.08092e-05
         6520   1.08092e-05
         6540   1.08092e-05
         6560   1.08092e-05
         6580   1.08092e-05
         6600   1.08092e-05
         6620   1.08092e-05
         6640   1.08092e-05
         6660   1.08092e-05
         6680   1.08092e-05
         6700   1.08092e-05
         6720   1.08092e-05
         6740   1.08092e-05
         6760   1.08092e-05
         6780   1.08092e-05
         6800   1.08092e-05
         6820   1.08092e-05
         6840   1.08092e-05
         6860   1.08092e-05
         6880   1.08092e-05
         6900   1.08092e-05
         6920   1.08092e-05
         6940   1.08092e-05
         6960   1.08092e-05
         6980   1.08092e-05
         7000   1.08092e-05
         7020   1.08092e-05
         7040   1.08092e-05
         7060   1.08092e-05
         7080   1.08091e-05
         7100   1.08091e-05
         7120   1.08091e-05
         7140   1.08091e-05
         7160   1.08091e-05
         7180   1.08091e-05
         7200   1.08091e-05
         7220   1.08091e-05
         7240   1.08091e-05
         7260   1.08091e-05
         7280   1.08091e-05
         7300   1.08091e-05
         7320   1.08091e-05
         7340   1.08091e-05
         7360   1.08091e-05
         7380   1.08091e-05
         7400   1.08091e-05
         7420   1.08091e-05
         7440   1.08091e-05
         7460   1.08091e-05
         7480   1.08091e-05
         7500   1.08091e-05
         7520   1.08091e-05
         7540   1.08091e-05
         7560   1.08091e-05
         7580   1.08091e-05
         7600   1.08091e-05
         7620   1.08091e-05
         7640   1.08091e-05
         7660   1.08091e-05
         7680   1.08091e-05
         7700   1.08091e-05
         7720   1.08091e-05
         7740   1.08091e-05
         7760    1.0809e-05
         7780    1.0809e-05
         7800    1.0809e-05
         7820    1.0809e-05
         7840    1.0809e-05
         7860    1.0809e-05
         7880    1.0809e-05
         7900    1.0809e-05
         7920    1.0809e-05
         7940    1.0809e-05
         7960    1.0809e-05
         7980    1.0809e-05
         8000    1.0809e-05
         8020    1.0809e-05
         8040    1.0809e-05
         8060    1.0809e-05
         8080    1.0809e-05
         8100    1.0809e-05
         8120    1.0809e-05
         8140    1.0809e-05
         8160    1.0809e-05
         8180    1.0809e-05
         8200    1.0809e-05
         8220    1.0809e-05
         8240    1.0809e-05
         8260    1.0809e-05
         8280    1.0809e-05
         8300    1.0809e-05
         8320   1.08089e-05
         8340   1.08089e-05
         8360   1.08089e-05
         8380   1.08089e-05
         8400   1.08089e-05
         8420   1.08089e-05
         8440   1.08089e-05
         8460   1.08089e-05
         8480   1.08089e-05
         8500   1.08089e-05
         8520   1.08089e-05
         8540   1.08089e-05
         8560   1.08089e-05
         8580   1.08089e-05
         8600   1.08089e-05
         8620   1.08089e-05
         8640   1.08089e-05
         8660   1.08089e-05
         8680   1.08089e-05
         8700   1.08089e-05
         8720   1.08089e-05
         8740   1.08089e-05
         8760   1.08088e-05
         8780   1.08088e-05
         8800   1.08088e-05
         8820   1.08088e-05
         8840   1.08088e-05
         8860   1.08088e-05
         8880   1.08088e-05
         8900   1.08088e-05
         8920   1.08088e-05
         8940   1.08088e-05
         8960   1.08088e-05
         8980   1.08088e-05
         9000   1.08088e-05
         9020   1.08088e-05
         9040   1.08088e-05
         9060   1.08088e-05
         9080   1.08088e-05
         9100   1.08088e-05
         9120   1.08088e-05
         9140   1.08088e-05
         9160   1.08087e-05
         9180   1.08087e-05
         9200   1.08087e-05
         9220   1.08087e-05
         9240   1.08087e-05
         9260   1.08087e-05
         9280   1.08087e-05
         9300   1.08087e-05
         9320   1.08087e-05
         9340   1.08087e-05
         9360   1.08087e-05
         9380   1.08087e-05
         9400   1.08087e-05
         9420   1.08087e-05
         9440   1.08087e-05
         9460   1.08087e-05
         9480   1.08087e-05
         9500   1.08086e-05
         9520   1.08086e-05
         9540   1.08086e-05
         9560   1.08086e-05
         9580   1.08086e-05
         9600   1.08086e-05
         9620   1.08086e-05
         9640   1.08086e-05
         9660   1.08086e-05
         9680   1.08086e-05
         9700   1.08086e-05
         9720   1.08086e-05
         9740   1.08086e-05
         9760   1.08086e-05
         9780   1.08086e-05
         9800   1.08086e-05
         9820   1.08085e-05
         9840   1.08085e-05
         9860   1.08085e-05
         9880   1.08085e-05
         9900   1.08085e-05
         9920   1.08085e-05
         9940   1.08085e-05
         9960   1.08085e-05
         9980   1.08085e-05
        10000   1.08085e-05
        10020   1.08085e-05
        10040   1.08085e-05
        10060   1.08085e-05
        10080   1.08085e-05
        10100   1.08084e-05
        10120   1.08084e-05
        10140   1.08084e-05
        10160   1.08084e-05
        10180   1.08084e-05
        10200   1.08084e-05
        10220   1.08084e-05
        10240   1.08084e-05
        10260   1.08084e-05
        10280   1.08084e-05
        10300   1.08084e-05
        10320   1.08084e-05
        10340   1.08084e-05
        10360   1.08083e-05
        10380   1.08083e-05
        10400   1.08083e-05
        10420   1.08083e-05
        10440   1.08083e-05
        10460   1.08083e-05
        10480   1.08083e-05
        10500   1.08083e-05
        10520   1.08083e-05
        10540   1.08083e-05
        10560   1.08083e-05
        10580   1.08083e-05
        10600   1.08082e-05
        10620   1.08082e-05
        10640   1.08082e-05
        10660   1.08082e-05
        10680   1.08082e-05
        10700   1.08082e-05
        10720   1.08082e-05
        10740   1.08082e-05
        10760   1.08082e-05
        10780   1.08082e-05
        10800   1.08082e-05
        10820   1.08082e-05
        10840   1.08081e-05
        10860   1.08081e-05
        10880   1.08081e-05
        10900   1.08081e-05
        10920   1.08081e-05
        10940   1.08081e-05
        10960   1.08081e-05
        10980   1.08081e-05
        11000   1.08081e-05
        11020   1.08081e-05
        11040   1.08081e-05
        11060    1.0808e-05
        11080    1.0808e-05
        11100    1.0808e-05
        11120    1.0808e-05
        11140    1.0808e-05
        11160    1.0808e-05
        11180    1.0808e-05
        11200    1.0808e-05
        11220    1.0808e-05
        11240    1.0808e-05
        11260   1.08079e-05
        11280   1.08079e-05
        11300   1.08079e-05
        11320   1.08079e-05
        11340   1.08079e-05
        11360   1.08079e-05
        11380   1.08079e-05
        11400   1.08079e-05
        11420   1.08079e-05
        11440   1.08078e-05
        11460   1.08078e-05
        11480   1.08078e-05
        11500   1.08078e-05
        11520   1.08078e-05
        11540   1.08078e-05
        11560   1.08078e-05
        11580   1.08078e-05
        11600   1.08078e-05
        11620   1.08078e-05
        11640   1.08077e-05
        11660   1.08077e-05
        11680   1.08077e-05
        11700   1.08077e-05
        11720   1.08077e-05
        11740   1.08077e-05
        11760   1.08077e-05
        11780   1.08077e-05
        11800   1.08076e-05
        11820   1.08076e-05
        11840   1.08076e-05
        11860   1.08076e-05
        11880   1.08076e-05
        11900   1.08076e-05
        11920   1.08076e-05
        11940   1.08076e-05
        11960   1.08076e-05
        11980   1.08075e-05
        12000   1.08075e-05
        12020   1.08075e-05
        12040   1.08075e-05
        12060   1.08075e-05
        12080   1.08075e-05
        12100   1.08075e-05
        12120   1.08075e-05
        12140   1.08074e-05
        12160   1.08074e-05
        12180   1.08074e-05
        12200   1.08074e-05
        12220   1.08074e-05
        12240   1.08074e-05
        12260   1.08074e-05
        12280   1.08074e-05
        12300   1.08073e-05
        12320   1.08073e-05
        12340   1.08073e-05
        12360   1.08073e-05
        12380   1.08073e-05
        12400   1.08073e-05
        12420   1.08073e-05
        12440   1.08072e-05
        12460   1.08072e-05
        12480   1.08072e-05
        12500   1.08072e-05
        12520   1.08072e-05
        12540   1.08072e-05
        12560   1.08072e-05
        12580   1.08071e-05
        12600   1.08071e-05
        12620   1.08071e-05
        12640   1.08071e-05
        12660   1.08071e-05
        12680   1.08071e-05
        12700   1.08071e-05
        12720    1.0807e-05
        12740    1.0807e-05
        12760    1.0807e-05
        12780    1.0807e-05
        12800    1.0807e-05
        12820    1.0807e-05
        12840    1.0807e-05
        12860   1.08069e-05
        12880   1.08069e-05
        12900   1.08069e-05
        12920   1.08069e-05
        12940   1.08069e-05
        12960   1.08069e-05
        12980   1.08069e-05
        13000   1.08068e-05
        13020   1.08068e-05
        13040   1.08068e-05
        13060   1.08068e-05
        13080   1.08068e-05
        13100   1.08068e-05
        13120   1.08067e-05
        13140   1.08067e-05
        13160   1.08067e-05
        13180   1.08067e-05
        13200   1.08067e-05
        13220   1.08067e-05
        13240   1.08066e-05
        13260   1.08066e-05
        13280   1.08066e-05
        13300   1.08066e-05
        13320   1.08066e-05
        13340   1.08066e-05
        13360   1.08065e-05
        13380   1.08065e-05
        13400   1.08065e-05
        13420   1.08065e-05
        13440   1.08065e-05
        13460   1.08065e-05
        13480   1.08064e-05
        13500   1.08064e-05
        13520   1.08064e-05
        13540   1.08064e-05
        13560   1.08064e-05
        13580   1.08064e-05
        13600   1.08063e-05
        13620   1.08063e-05
        13640   1.08063e-05
        13660   1.08063e-05
        13680   1.08063e-05
        13700   1.08062e-05
        13720   1.08062e-05
        13740   1.08062e-05
        13760   1.08062e-05
        13780   1.08062e-05
        13800   1.08062e-05
        13820   1.08061e-05
        13840   1.08061e-05
        13860   1.08061e-05
        13880   1.08061e-05
        13900   1.08061e-05
        13920    1.0806e-05
        13940    1.0806e-05
        13960    1.0806e-05
        13980    1.0806e-05
        14000    1.0806e-05
        14020   1.08059e-05
        14040   1.08059e-05
        14060   1.08059e-05
        14080   1.08059e-05
        14100   1.08059e-05
        14120   1.08058e-05
        14140   1.08058e-05
        14160   1.08058e-05
        14180   1.08058e-05
        14200   1.08058e-05
        14220   1.08057e-05
        14240   1.08057e-05
        14260   1.08057e-05
        14280   1.08057e-05
        14300   1.08057e-05
        14320   1.08056e-05
        14340   1.08056e-05
        14360   1.08056e-05
        14380   1.08056e-05
        14400   1.08056e-05
        14420   1.08055e-05
        14440   1.08055e-05
        14460   1.08055e-05
        14480   1.08055e-05
        14500   1.08055e-05
        14520   1.08054e-05
        14540   1.08054e-05
        14560   1.08054e-05
        14580   1.08054e-05
        14600   1.08053e-05
        14620   1.08053e-05
        14640   1.08053e-05
        14660   1.08053e-05
        14680   1.08053e-05
        14700   1.08052e-05
        14720   1.08052e-05
        14740   1.08052e-05
        14760   1.08052e-05
        14780   1.08051e-05
        14800   1.08051e-05
        14820   1.08051e-05
        14840   1.08051e-05
        14860    1.0805e-05
        14880    1.0805e-05
        14900    1.0805e-05
        14920    1.0805e-05
        14940    1.0805e-05
        14960   1.08049e-05
        14980   1.08049e-05
        15000   1.08049e-05
        15020   1.08049e-05
        15040   1.08048e-05
        15060   1.08048e-05
        15080   1.08048e-05
        15100   1.08048e-05
        15120   1.08047e-05
        15140   1.08047e-05
        15160   1.08047e-05
        15180   1.08047e-05
        15200   1.08046e-05
        15220   1.08046e-05
        15240   1.08046e-05
        15260   1.08046e-05
        15280   1.08045e-05
        15300   1.08045e-05
        15320   1.08045e-05
        15340   1.08045e-05
        15360   1.08044e-05
        15380   1.08044e-05
        15400   1.08044e-05
        15420   1.08044e-05
        15440   1.08043e-05
        15460   1.08043e-05
        15480   1.08043e-05
        15500   1.08043e-05
        15520   1.08042e-05
        15540   1.08042e-05
        15560   1.08042e-05
        15580   1.08042e-05
        15600   1.08041e-05
        15620   1.08041e-05
        15640   1.08041e-05
        15660    1.0804e-05
        15680    1.0804e-05
        15700    1.0804e-05
        15720    1.0804e-05
        15740   1.08039e-05
        15760   1.08039e-05
        15780   1.08039e-05
        15800   1.08038e-05
        15820   1.08038e-05
        15840   1.08038e-05
        15860   1.08038e-05
        15880   1.08037e-05
        15900   1.08037e-05
        15920   1.08037e-05
        15940   1.08037e-05
        15960   1.08036e-05
        15980   1.08036e-05
        16000   1.08036e-05
        16020   1.08035e-05
        16040   1.08035e-05
        16060   1.08035e-05
        16080   1.08034e-05
        16100   1.08034e-05
        16120   1.08034e-05
        16140   1.08034e-05
        16160   1.08033e-05
        16180   1.08033e-05
        16200   1.08033e-05
        16220   1.08032e-05
        16240   1.08032e-05
        16260   1.08032e-05
        16280   1.08031e-05
        16300   1.08031e-05
        16320   1.08031e-05
        16340   1.08031e-05
        16360    1.0803e-05
        16380    1.0803e-05
        16400    1.0803e-05
        16420   1.08029e-05
        16440   1.08029e-05
        16460   1.08029e-05
        16480   1.08028e-05
        16500   1.08028e-05
        16520   1.08028e-05
        16540   1.08027e-05
        16560   1.08027e-05
        16580   1.08027e-05
        16600   1.08026e-05
        16620   1.08026e-05
        16640   1.08026e-05
        16660   1.08025e-05
        16680   1.08025e-05
        16700   1.08025e-05
        16720   1.08025e-05
        16740   1.08024e-05
        16760   1.08024e-05
        16780   1.08024e-05
        16800   1.08023e-05
        16820   1.08023e-05
        16840   1.08023e-05
        16860   1.08022e-05
        16880   1.08022e-05
        16900   1.08021e-05
        16920   1.08021e-05
        16940   1.08021e-05
        16960    1.0802e-05
        16980    1.0802e-05
        17000    1.0802e-05
        17020   1.08019e-05
        17040   1.08019e-05
        17060   1.08019e-05
        17080   1.08018e-05
        17100   1.08018e-05
        17120   1.08018e-05
        17140   1.08017e-05
        17160   1.08017e-05
        17180   1.08017e-05
        17200   1.08016e-05
        17220   1.08016e-05
        17240   1.08016e-05
        17260   1.08015e-05
        17280   1.08015e-05
        17300   1.08014e-05
        17320   1.08014e-05
        17340   1.08014e-05
        17360   1.08013e-05
        17380   1.08013e-05
        17400   1.08013e-05
        17420   1.08012e-05
        17440   1.08012e-05
        17460   1.08011e-05
        17480   1.08011e-05
        17500   1.08011e-05
        17520    1.0801e-05
        17540    1.0801e-05
        17560    1.0801e-05
        17580   1.08009e-05
        17600   1.08009e-05
        17620   1.08008e-05
        17640   1.08008e-05
        17660   1.08008e-05
        17680   1.08007e-05
        17700   1.08007e-05
        17720   1.08006e-05
        17740   1.08006e-05
        17760   1.08006e-05
        17780   1.08005e-05
        17800   1.08005e-05
        17820   1.08004e-05
        17840   1.08004e-05
        17860   1.08004e-05
        17880   1.08003e-05
        17900   1.08003e-05
        17920   1.08002e-05
        17940   1.08002e-05
        17960   1.08002e-05
        17980   1.08001e-05
        18000   1.08001e-05
        18020      1.08e-05
        18040      1.08e-05
        18060      1.08e-05
        18080   1.07999e-05
        18100   1.07999e-05
        18120   1.07998e-05
        18140   1.07998e-05
        18160   1.07997e-05
        18180   1.07997e-05
        18200   1.07997e-05
        18220   1.07996e-05
        18240   1.07996e-05
        18260   1.07995e-05
        18280   1.07995e-05
        18300   1.07995e-05
        18320   1.07994e-05
        18340   1.07994e-05
        18360   1.07993e-05
        18380   1.07993e-05
        18400   1.07992e-05
        18420   1.07992e-05
        18440   1.07991e-05
        18460   1.07991e-05
        18480   1.07991e-05
        18500    1.0799e-05
        18520    1.0799e-05
        18540   1.07989e-05
        18560   1.07989e-05
        18580   1.07988e-05
        18600   1.07988e-05
        18620   1.07987e-05
        18640   1.07987e-05
        18660   1.07986e-05
        18680   1.07986e-05
        18700   1.07986e-05
        18720   1.07985e-05
        18740   1.07985e-05
        18760   1.07984e-05
        18780   1.07984e-05
        18800   1.07983e-05
        18820   1.07983e-05
        18840   1.07982e-05
        18860   1.07982e-05
        18880   1.07981e-05
        18900   1.07981e-05
        18920    1.0798e-05
        18940    1.0798e-05
        18960   1.07979e-05
        18980   1.07979e-05
        19000   1.07978e-05
        19020   1.07978e-05
        19040   1.07978e-05
        19060   1.07977e-05
        19080   1.07977e-05
        19100   1.07976e-05
        19120   1.07976e-05
        19140   1.07975e-05
        19160   1.07975e-05
        19180   1.07974e-05
        19200   1.07974e-05
        19220   1.07973e-05
        19240   1.07973e-05
        19260   1.07972e-05
        19280   1.07972e-05
        19300   1.07971e-05
        19320   1.07971e-05
        19340    1.0797e-05
        19360    1.0797e-05
        19380   1.07969e-05
        19400   1.07968e-05
        19420   1.07968e-05
        19440   1.07967e-05
        19460   1.07967e-05
        19480   1.07966e-05
        19500   1.07966e-05
        19520   1.07965e-05
        19540   1.07965e-05
        19560   1.07964e-05
        19580   1.07964e-05
        19600   1.07963e-05
        19620   1.07963e-05
        19640   1.07962e-05
        19660   1.07962e-05
        19680   1.07961e-05
        19700   1.07961e-05
        19720    1.0796e-05
        19740    1.0796e-05
        19760   1.07959e-05
        19780   1.07958e-05
        19800   1.07958e-05
        19820   1.07957e-05
        19840   1.07957e-05
        19860   1.07956e-05
        19880   1.07956e-05
        19900   1.07955e-05
        19920   1.07955e-05
        19940   1.07954e-05
        19960   1.07953e-05
        19980   1.07953e-05
        20000   1.07952e-05
        20020   1.07952e-05
        20040   1.07951e-05
        20060   1.07951e-05
        20080    1.0795e-05
        20100   1.07949e-05
        20120   1.07949e-05
        20140   1.07948e-05
        20160   1.07948e-05
        20180   1.07947e-05
        20200   1.07947e-05
        20220   1.07946e-05
        20240   1.07945e-05
        20260   1.07945e-05
        20280   1.07944e-05
        20300   1.07944e-05
        20320   1.07943e-05
        20340   1.07942e-05
        20360   1.07942e-05
        20380   1.07941e-05
        20400   1.07941e-05
        20420    1.0794e-05
        20440    1.0794e-05
        20460   1.07939e-05
        20480   1.07938e-05
        20500   1.07938e-05
        20520   1.07937e-05
        20540   1.07936e-05
        20560   1.07936e-05
        20580   1.07935e-05
        20600   1.07935e-05
        20620   1.07934e-05
        20640   1.07933e-05
        20660   1.07933e-05
        20680   1.07932e-05
        20700   1.07932e-05
        20720   1.07931e-05
        20740    1.0793e-05
        20760    1.0793e-05
        20780   1.07929e-05
        20800   1.07928e-05
        20820   1.07928e-05
        20840   1.07927e-05
        20860   1.07926e-05
        20880   1.07926e-05
        20900   1.07925e-05
        20920   1.07925e-05
        20940   1.07924e-05
        20960   1.07923e-05
        20980   1.07923e-05
        21000   1.07922e-05
        21020   1.07921e-05
        21040   1.07921e-05
        21060    1.0792e-05
        21080   1.07919e-05
        21100   1.07919e-05
        21120   1.07918e-05
        21140   1.07917e-05
        21160   1.07917e-05
        21180   1.07916e-05
        21200   1.07915e-05
        21220   1.07915e-05
        21240   1.07914e-05
        21260   1.07913e-05
        21280   1.07913e-05
        21300   1.07912e-05
        21320   1.07911e-05
        21340   1.07911e-05
        21360    1.0791e-05