# Probe 0 (0.05 0.05 0.005)
#       Probe             0
#        Time
           20             0
           40   3.35809e-16
           60   3.11822e-15
           80   1.27607e-14
          100   3.59795e-14
          120   8.17934e-14
          140   1.61524e-13
          160   2.88795e-13
          180   4.79535e-13
          200   7.51971e-13
          220   1.12664e-12
          240   1.62637e-12
          260    2.2763e-12
          280   3.10388e-12
          300   4.13884e-12
          320   5.41323e-12
          340   6.96141e-12
          360   8.82001e-12
          380    1.1028e-11
          400   1.36266e-11
          420   1.66595e-11
          440   2.01724e-11
          460   2.42135e-11
          480   2.88333e-11
          500   3.40846e-11
          520   4.00224e-11
          540   4.67041e-11
          560   5.41894e-11
          580   6.25403e-11
          600   7.18211e-11
          620   8.20983e-11
          640   9.34408e-11
          660    1.0592e-10
          680   1.19609e-10
          700   1.34584e-10
          720   1.50922e-10
          740   1.68706e-10
          760   1.88016e-10
          780   2.08938e-10
          800   2.31559e-10
          820    2.5597e-10
          840   2.82261e-10
          860   3.10527e-10
          880   3.40865e-10
          900   3.73374e-10
          920   4.08154e-10
          940   4.45308e-10
          960   4.84944e-10
          980   5.27168e-10
         1000   5.72092e-10
         1020   6.19827e-10
         1040   6.70489e-10
         1060   7.24195e-10
         1080   7.81064e-10
         1100   8.41219e-10
         1120   9.04783e-10
         1140   9.71882e-10
         1160   1.04265e-09
         1180   1.11721e-09
         1200    1.1957e-09
         1220   1.27825e-09
         1240   1.36501e-09
         1260   1.45611e-09
         1280   1.55169e-09
         1300   1.65191e-09
         1320    1.7569e-09
         1340   1.86682e-09
         1360   1.98182e-09
         1380   2.10206e-09
         1400   2.22768e-09
         1420   2.35885e-09
         1440   2.49573e-09
         1460   2.63848e-09
         1480   2.78727e-09
         1500   2.94226e-09
         1520   3.10364e-09
         1540   3.27156e-09
         1560    3.4462e-09
         1580   3.62774e-09
         1600   3.81637e-09
         1620   4.01225e-09
         1640   4.21559e-09
         1660   4.42655e-09
         1680   4.64533e-09
         1700   4.87213e-09
         1720   5.10713e-09
         1740   5.35053e-09
         1760   5.60253e-09
         1780   5.86333e-09
         1800   6.13313e-09
         1820   6.41213e-09
         1840   6.70054e-09
         1860   6.99858e-09
         1880   7.30645e-09
         1900   7.62437e-09
         1920   7.95256e-09
         1940   8.29122e-09
         1960   8.64059e-09
         1980   9.00089e-09
         2000   9.37233e-09
         2020   9.75516e-09
         2040   1.01496e-08
         2060   1.05559e-08
         2080   1.09742e-08
         2100   1.14049e-08
         2120   1.18481e-08
         2140   1.23041e-08
         2160   1.27732e-08
         2180   1.32555e-08
         2200   1.37514e-08
         2220   1.42611e-08
         2240   1.47848e-08
         2260   1.53227e-08
         2280   1.58753e-08
         2300   1.64426e-08
         2320    1.7025e-08
         2340   1.76228e-08
         2360   1.82362e-08
         2380   1.88654e-08
         2400   1.95108e-08
         2420   2.01726e-08
         2440   2.08511e-08
         2460   2.15465e-08
         2480   2.22593e-08
         2500   2.29895e-08
         2520   2.37376e-08
         2540   2.45038e-08
         2560   2.52884e-08
         2580   2.60916e-08
         2600   2.69139e-08
         2620   2.77555e-08
         2640   2.86166e-08
         2660   2.94976e-08
         2680   3.03988e-08
         2700   3.13205e-08
         2720    3.2263e-08
         2740   3.32266e-08
         2760   3.42117e-08
         2780   3.52185e-08
         2800   3.62473e-08
         2820   3.72985e-08
         2840   3.83725e-08
         2860   3.94694e-08
         2880   4.05897e-08
         2900   4.17337e-08
         2920   4.29017e-08
         2940    4.4094e-08
         2960    4.5311e-08
         2980   4.65531e-08
         3000   4.78205e-08
         3020   4.91136e-08
         3040   5.04327e-08
         3060   5.17783e-08
         3080   5.31506e-08
         3100     5.455e-08
         3120   5.59769e-08
         3140   5.74315e-08
         3160   5.89143e-08
         3180   6.04257e-08
         3200    6.1966e-08
         3220   6.35355e-08
         3240   6.51346e-08
         3260   6.67638e-08
         3280   6.84233e-08
         3300   7.01135e-08
         3320   7.18349e-08
         3340   7.35878e-08
         3360   7.53726e-08
         3380   7.71896e-08
         3400   7.90393e-08
         3420   8.09221e-08
         3440   8.28383e-08
         3460   8.47883e-08
         3480   8.67725e-08
         3500   8.87914e-08
         3520   9.08453e-08
         3540   9.29346e-08
         3560   9.50598e-08
         3580   9.72211e-08
         3600   9.94192e-08
         3620   1.01654e-07
         3640   1.03927e-07
         3660   1.06237e-07
         3680   1.08586e-07
         3700   1.10974e-07
         3720     1.134e-07
         3740   1.15867e-07
         3760   1.18373e-07
         3780    1.2092e-07
         3800   1.23507e-07
         3820   1.26136e-07
         3840   1.28807e-07
         3860   1.31519e-07
         3880   1.34275e-07
         3900   1.37073e-07
         3920   1.39915e-07
         3940   1.42801e-07
         3960   1.45732e-07
         3980   1.48707e-07
         4000   1.51728e-07
         4020   1.54794e-07
         4040   1.57907e-07
         4060   1.61066e-07
         4080   1.64273e-07
         4100   1.67527e-07
         4120   1.70829e-07
         4140    1.7418e-07
         4160    1.7758e-07
         4180   1.81029e-07
         4200   1.84529e-07
         4220   1.88079e-07
         4240    1.9168e-07
         4260   1.95332e-07
         4280   1.99037e-07
         4300   2.02793e-07
         4320   2.06603e-07
         4340   2.10466e-07
         4360   2.14383e-07
         4380   2.18355e-07
         4400   2.22381e-07
         4420   2.26463e-07
         4440   2.30601e-07
         4460   2.34795e-07
         4480   2.39046e-07
         4500   2.43355e-07
         4520   2.47721e-07
         4540   2.52146e-07
         4560   2.56631e-07
         4580   2.61174e-07
         4600   2.65778e-07
         4620   2.70442e-07
         4640   2.75168e-07
         4660   2.79955e-07
         4680   2.84804e-07
         4700   2.89716e-07
         4720   2.94692e-07
         4740   2.99731e-07
         4760   3.04834e-07
         4780   3.10003e-07
         4800   3.15237e-07
         4820   3.20536e-07
         4840   3.25903e-07
         4860   3.31336e-07
         4880   3.36837e-07
         4900   3.42407e-07
         4920   3.48045e-07
         4940   3.53752e-07
         4960    3.5953e-07
         4980   3.65378e-07
         5000   3.71296e-07
         5020   3.77287e-07
         5040    3.8335e-07
         5060   3.89485e-07
         5080   3.95694e-07
         5100   4.01977e-07
         5120   4.08334e-07
         5140   4.14766e-07
         5160   4.21275e-07
         5180   4.27859e-07
         5200    4.3452e-07
         5220   4.41259e-07
         5240   4.48076e-07
         5260   4.54971e-07
         5280   4.61946e-07
         5300   4.69001e-07
         5320   4.76136e-07
         5340   4.83352e-07
         5360    4.9065e-07
         5380   4.98031e-07
         5400   5.05494e-07
         5420   5.13041e-07
         5440   5.20672e-07
         5460   5.28388e-07
         5480   5.36189e-07
         5500   5.44076e-07
         5520    5.5205e-07
         5540   5.60112e-07
         5560   5.68261e-07
         5580   5.76499e-07
         5600   5.84826e-07
         5620   5.93243e-07
         5640   6.01751e-07
         5660    6.1035e-07
         5680    6.1904e-07
         5700   6.27823e-07
         5720     6.367e-07
         5740    6.4567e-07
         5760   6.54734e-07
         5780   6.63894e-07
         5800   6.73149e-07
         5820   6.82501e-07
         5840    6.9195e-07
         5860   7.01496e-07
         5880   7.11141e-07
         5900   7.20886e-07
         5920   7.30729e-07
         5940   7.40674e-07
         5960    7.5072e-07
         5980   7.60867e-07
         6000   7.71117e-07
         6020    7.8147e-07
         6040   7.91927e-07
         6060   8.02489e-07
         6080   8.13156e-07
         6100   8.23929e-07
         6120   8.34809e-07
         6140   8.45796e-07
         6160   8.56891e-07
         6180   8.68095e-07
         6200   8.79408e-07
         6220   8.90832e-07
         6240   9.02366e-07
         6260   9.14013e-07
         6280   9.25771e-07
         6300   9.37643e-07
         6320   9.49628e-07
         6340   9.61728e-07
         6360   9.73944e-07
         6380   9.86275e-07
         6400   9.98723e-07
         6420   1.01129e-06
         6440   1.02397e-06
         6460   1.03677e-06
         6480    1.0497e-06
         6500   1.06274e-06
         6520    1.0759e-06
         6540   1.08919e-06
         6560    1.1026e-06
         6580   1.11613e-06
         6600   1.12979e-06
         6620   1.14357e-06
         6640   1.15747e-06
         6660   1.17151e-06
         6680   1.18567e-06
         6700   1.19996e-06
         6720   1.21437e-06
         6740   1.22892e-06
         6760    1.2436e-06
         6780    1.2584e-06
         6800   1.27334e-06
         6820   1.28842e-06
         6840   1.30362e-06
         6860   1.31896e-06
         6880   1.33444e-06
         6900   1.35005e-06
         6920   1.36579e-06
         6940   1.38168e-06
         6960    1.3977e-06
         6980   1.41386e-06
         7000   1.43016e-06
         7020   1.44661e-06
         7040   1.46319e-06
         7060   1.47992e-06
         7080   1.49678e-06
         7100    1.5138e-06
         7120   1.53095e-06
         7140   1.54826e-06
         7160    1.5657e-06
         7180    1.5833e-06
         7200   1.60104e-06
         7220   1.61894e-06
         7240   1.63698e-06
         7260   1.65517e-06
         7280   1.67351e-06
         7300   1.69201e-06
         7320   1.71066e-06
         7340   1.72946e-06
         7360   1.74842e-06
         7380   1.76753e-06
         7400    1.7868e-06
         7420   1.80622e-06
         7440    1.8258e-06
         7460   1.84555e-06
         7480   1.86545e-06
         7500   1.88551e-06
         7520   1.90573e-06
         7540   1.92612e-06
         7560   1.94667e-06
         7580   1.96738e-06
         7600   1.98826e-06
         7620    2.0093e-06
         7640   2.03051e-06
         7660   2.05189e-06
         7680   2.07344e-06
         7700   2.09515e-06
         7720   2.11704e-06
         7740   2.13909e-06
         7760   2.16132e-06
         7780   2.18372e-06
         7800    2.2063e-06
         7820   2.22905e-06
         7840   2.25197e-06
         7860   2.27507e-06
         7880   2.29835e-06
         7900   2.32181e-06
         7920   2.34544e-06
         7940   2.36926e-06
         7960   2.39325e-06
         7980   2.41743e-06
         8000   2.44179e-06
         8020   2.46634e-06
         8040   2.49107e-06
         8060   2.51598e-06
         8080   2.54108e-06
         8100   2.56637e-06
         8120   2.59185e-06
         8140   2.61751e-06
         8160   2.64337e-06
         8180   2.66942e-06
         8200   2.69565e-06
         8220   2.72209e-06
         8240   2.74871e-06
         8260   2.77553e-06
         8280   2.80255e-06
         8300   2.82976e-06
         8320   2.85717e-06
         8340   2.88478e-06
         8360   2.91259e-06
         8380    2.9406e-06
         8400   2.96881e-06
         8420   2.99723e-06
         8440   3.02584e-06
         8460   3.05466e-06
         8480   3.08369e-06
         8500   3.11293e-06
         8520   3.14237e-06
         8540   3.17201e-06
         8560   3.20187e-06
         8580   3.23194e-06
         8600   3.26222e-06
         8620   3.29271e-06
         8640   3.32342e-06
         8660   3.35434e-06
         8680   3.38547e-06
         8700   3.41682e-06
         8720   3.44839e-06
         8740   3.48018e-06
         8760   3.51218e-06
         8780   3.54441e-06
         8800   3.57686e-06
         8820   3.60953e-06
         8840   3.64242e-06
         8860   3.67554e-06
         8880   3.70888e-06
         8900   3.74245e-06
         8920   3.77624e-06
         8940   3.81027e-06
         8960   3.84452e-06
         8980     3.879e-06
         9000   3.91372e-06
         9020   3.94867e-06
         9040   3.98385e-06
         9060   4.01926e-06
         9080   4.05491e-06
         9100    4.0908e-06
         9120   4.12693e-06
         9140   4.16329e-06
         9160    4.1999e-06
         9180   4.23674e-06
         9200   4.27383e-06
         9220   4.31116e-06
         9240   4.34873e-06
         9260   4.38655e-06
         9280   4.42462e-06
         9300   4.46293e-06
         9320   4.50149e-06
         9340    4.5403e-06
         9360   4.57936e-06
         9380   4.61867e-06
         9400   4.65823e-06
         9420   4.69805e-06
         9440   4.73812e-06
         9460   4.77845e-06
         9480   4.81903e-06
         9500   4.85988e-06
         9520   4.90098e-06
         9540   4.94234e-06
         9560   4.98396e-06
         9580   5.02585e-06
         9600     5.068e-06
         9620   5.11041e-06
         9640   5.15309e-06
         9660   5.19604e-06
         9680   5.23925e-06
         9700   5.28273e-06
         9720   5.32649e-06
         9740   5.37051e-06
         9760    5.4148e-06
         9780   5.45937e-06
         9800   5.50422e-06
         9820   5.54934e-06
         9840   5.59473e-06
         9860   5.64041e-06
         9880   5.68636e-06
         9900    5.7326e-06
         9920   5.77911e-06
         9940   5.82591e-06
         9960   5.87299e-06
         9980   5.92035e-06
        10000     5.968e-06
        10020   6.01594e-06
        10040   6.06417e-06
        10060   6.11269e-06
        10080   6.16149e-06
        10100   6.21059e-06
        10120   6.25998e-06
        10140   6.30967e-06
        10160   6.35965e-06
        10180   6.40992e-06
        10200    6.4605e-06
        10220   6.51137e-06
        10240   6.56254e-06
        10260   6.61401e-06
        10280   6.66579e-06
        10300   6.71787e-06
        10320   6.77025e-06
        10340   6.82294e-06
        10360   6.87593e-06
        10380   6.92924e-06
        10400   6.98285e-06
        10420   7.03677e-06
        10440   7.09101e-06
        10460   7.14556e-06
        10480   7.20042e-06
        10500    7.2556e-06
        10520   7.31109e-06
        10540    7.3669e-06
        10560   7.42303e-06
        10580   7.47948e-06
        10600   7.53625e-06
        10620   7.59335e-06
        10640   7.65076e-06
        10660   7.70851e-06
        10680   7.76657e-06
        10700   7.82497e-06
        10720    7.8837e-06
        10740   7.94275e-06
        10760   8.00214e-06
        10780   8.06185e-06
        10800    8.1219e-06
        10820   8.18229e-06
        10840   8.24301e-06
        10860   8.30407e-06
        10880   8.36547e-06
        10900   8.42721e-06
        10920   8.48929e-06
        10940   8.55171e-06
        10960   8.61447e-06
        10980   8.67758e-06
        11000   8.74104e-06
        11020   8.80484e-06
        11040   8.86899e-06
        11060   8.93349e-06
        11080   8.99834e-06
        11100   9.06355e-06
        11120   9.12911e-06
        11140   9.19502e-06
        11160   9.26129e-06
        11180   9.32792e-06
        11200    9.3949e-06
        11220   9.46225e-06
        11240   9.52995e-06
        11260   9.59802e-06
        11280   9.66646e-06
        11300   9.73525e-06
        11320   9.80442e-06
        11340   9.87395e-06
        11360   9.94385e-06
        11380   1.00141e-05
        11400   1.00848e-05
        11420   1.01558e-05
        11440   1.02272e-05
        11460   1.02989e-05
        11480   1.03711e-05
        11500   1.04436e-05
        11520   1.05165e-05
        11540   1.05898e-05
        11560   1.06635e-05
        11580   1.07375e-05
        11600   1.08119e-05
        11620   1.08868e-05
        11640    1.0962e-05
        11660   1.10376e-05
        11680   1.11135e-05
        11700   1.11899e-05
        11720   1.12667e-05
        11740   1.13439e-05
        11760   1.14214e-05
        11780   1.14994e-05
        11800   1.15777e-05
        11820   1.16565e-05
        11840   1.17356e-05
        11860   1.18152e-05
        11880   1.18952e-05
        11900   1.19755e-05
        11920   1.20563e-05
        11940   1.21375e-05
        11960   1.22191e-05
        11980   1.23011e-05
        12000   1.23835e-05
        12020   1.24663e-05
        12040   1.25495e-05
        12060   1.26332e-05
        12080   1.27173e-05
        12100   1.28018e-05
        12120   1.28867e-05
        12140    1.2972e-05
        12160   1.30578e-05
        12180    1.3144e-05
        12200   1.32306e-05
        12220   1.33176e-05
        12240   1.34051e-05
        12260    1.3493e-05
        12280   1.35813e-05
        12300     1.367e-05
        12320   1.37592e-05
        12340   1.38489e-05
        12360   1.39389e-05
        12380   1.40294e-05
        12400   1.41204e-05
        12420   1.42117e-05
        12440   1.43036e-05
        12460   1.43958e-05
        12480   1.44885e-05
        12500   1.45817e-05
        12520   1.46753e-05
        12540   1.47694e-05
        12560   1.48639e-05
        12580   1.49589e-05
        12600   1.50543e-05
        12620   1.51501e-05
        12640   1.52465e-05
        12660   1.53433e-05
        12680   1.54405e-05
        12700   1.55382e-05
        12720   1.56364e-05
        12740    1.5735e-05
        12760   1.58341e-05
        12780   1.59337e-05
        12800   1.60338e-05
        12820   1.61343e-05
        12840   1.62352e-05
        12860   1.63367e-05
        12880   1.64386e-05
        12900    1.6541e-05
        12920   1.66439e-05
        12940   1.67473e-05
        12960   1.68511e-05
        12980   1.69554e-05
        13000   1.70602e-05
        13020   1.71655e-05
        13040   1.72713e-05
        13060   1.73776e-05
        13080   1.74843e-05
        13100   1.75916e-05
        13120   1.76993e-05
        13140   1.78075e-05
        13160   1.79163e-05
        13180   1.80255e-05
        13200   1.81352e-05
        13220   1.82454e-05
        13240   1.83562e-05
        13260   1.84674e-05
        13280   1.85791e-05
        13300   1.86914e-05
        13320   1.88041e-05
        13340   1.89174e-05
        13360   1.90311e-05
        13380   1.91454e-05
        13400   1.92602e-05
        13420   1.93755e-05
        13440   1.94913e-05
        13460   1.96077e-05
        13480   1.97245e-05
        13500   1.98419e-05
        13520   1.99598e-05
        13540   2.00782e-05
        13560   2.01972e-05
        13580   2.03167e-05
        13600   2.04367e-05
        13620   2.05572e-05
        13640   2.06783e-05
        13660   2.07999e-05
        13680    2.0922e-05
        13700   2.10447e-05
        13720   2.11679e-05
        13740   2.12917e-05
        13760    2.1416e-05
        13780   2.15408e-05
        13800   2.16662e-05
        13820   2.17921e-05
        13840   2.19186e-05
        13860   2.20457e-05
        13880   2.21732e-05
        13900   2.23014e-05
        13920   2.24301e-05
        13940   2.25593e-05
        13960   2.26891e-05
        13980   2.28195e-05
        14000   2.29504e-05
        14020   2.30819e-05
        14040   2.32139e-05
        14060   2.33465e-05
        14080   2.34797e-05
        14100   2.36134e-05
        14120   2.37478e-05
        14140   2.38826e-05
        14160   2.40181e-05
        14180   2.41541e-05
        14200   2.42908e-05
        14220    2.4428e-05
        14240   2.45657e-05
        14260   2.47041e-05
        14280    2.4843e-05
        14300   2.49825e-05
        14320   2.51226e-05
        14340   2.52633e-05
        14360   2.54046e-05
        14380   2.55465e-05
        14400    2.5689e-05
        14420    2.5832e-05
        14440   2.59757e-05
        14460     2.612e-05
        14480   2.62648e-05
        14500   2.64103e-05
        14520   2.65563e-05
        14540    2.6703e-05
        14560   2.68503e-05
        14580   2.69982e-05
        14600   2.71466e-05
        14620   2.72957e-05
        14640   2.74455e-05
        14660   2.75958e-05
        14680   2.77467e-05
        14700   2.78983e-05
        14720   2.80505e-05
        14740   2.82033e-05
        14760   2.83567e-05
        14780   2.85108e-05
        14800   2.86654e-05
        14820   2.88207e-05
        14840   2.89767e-05
        14860   2.91333e-05
        14880   2.92905e-05
        14900   2.94483e-05
        14920   2.96068e-05
        14940   2.97659e-05
        14960   2.99256e-05
        14980    3.0086e-05
        15000    3.0247e-05
        15020   3.04087e-05
        15040    3.0571e-05
        15060    3.0734e-05
        15080   3.08976e-05
        15100   3.10619e-05
        15120   3.12268e-05
        15140   3.13924e-05
        15160   3.15587e-05
        15180   3.17256e-05
        15200   3.18931e-05
        15220   3.20614e-05
        15240   3.22302e-05
        15260   3.23998e-05
        15280     3.257e-05
        15300   3.27409e-05
        15320   3.29125e-05
        15340   3.30847e-05
        15360   3.32576e-05
        15380   3.34312e-05
        15400   3.36055e-05
        15420   3.37804e-05
        15440    3.3956e-05
        15460   3.41323e-05
        15480   3.43093e-05
        15500    3.4487e-05
        15520   3.46654e-05
        15540   3.48444e-05
        15560   3.50242e-05
        15580   3.52046e-05
        15600   3.53858e-05
        15620   3.55676e-05
        15640   3.57501e-05
        15660   3.59334e-05
        15680   3.61173e-05
        15700   3.63019e-05
        15720   3.64873e-05
        15740   3.66734e-05
        15760   3.68601e-05
        15780   3.70476e-05
        15800   3.72358e-05
        15820   3.74247e-05
        15840   3.76143e-05
        15860   3.78047e-05
        15880   3.79957e-05
        15900   3.81875e-05
        15920     3.838e-05
        15940   3.85733e-05
        15960   3.87672e-05
        15980   3.89619e-05
        16000   3.91574e-05
        16020   3.93535e-05
        16040   3.95504e-05
        16060    3.9748e-05
        16080   3.99464e-05
        16100   4.01455e-05
        16120   4.03454e-05
        16140    4.0546e-05
        16160   4.07473e-05
        16180   4.09494e-05
        16200   4.11523e-05
        16220   4.13559e-05
        16240   4.15602e-05
        16260   4.17653e-05
        16280   4.19712e-05
        16300   4.21778e-05
        16320   4.23852e-05
        16340   4.25933e-05
        16360   4.28022e-05
        16380   4.30119e-05
        16400   4.32223e-05
        16420   4.34336e-05
        16440   4.36455e-05
        16460   4.38583e-05
        16480   4.40718e-05
        16500   4.42862e-05
        16520   4.45012e-05
        16540   4.47171e-05
        16560   4.49338e-05
        16580   4.51512e-05
        16600   4.53695e-05
        16620   4.55885e-05
        16640   4.58083e-05
        16660   4.60289e-05
        16680   4.62503e-05
        16700   4.64725e-05
        16720   4.66955e-05
        16740   4.69193e-05
        16760   4.71439e-05
        16780   4.73693e-05
        16800   4.75955e-05
        16820   4.78225e-05
        16840   4.80503e-05
        16860   4.82789e-05
        16880   4.85084e-05
        16900   4.87387e-05
        16920   4.89698e-05
        16940   4.92017e-05
        16960   4.94344e-05
        16980   4.96679e-05
        17000   4.99023e-05
        17020   5.01375e-05
        17040   5.03735e-05
        17060   5.06104e-05
        17080   5.08481e-05
        17100   5.10866e-05
        17120    5.1326e-05
        17140   5.15662e-05
        17160   5.18072e-05
        17180   5.20491e-05
        17200   5.22919e-05
        17220   5.25354e-05
        17240   5.27799e-05
        17260   5.30251e-05
        17280   5.32713e-05
        17300   5.35183e-05
        17320   5.37661e-05
        17340   5.40148e-05
        17360   5.42644e-05
        17380   5.45148e-05
        17400   5.47661e-05
        17420   5.50182e-05
        17440   5.52713e-05
        17460   5.55252e-05
        17480   5.57799e-05
        17500   5.60356e-05
        17520   5.62921e-05
        17540   5.65495e-05
        17560   5.68077e-05
        17580   5.70669e-05
        17600   5.73269e-05
        17620   5.75879e-05
        17640   5.78497e-05
        17660   5.81124e-05
        17680    5.8376e-05
        17700   5.86405e-05
        17720   5.89059e-05
        17740   5.91722e-05
        17760   5.94393e-05
        17780   5.97074e-05
        17800   5.99764e-05
        17820   6.02463e-05
        17840   6.05171e-05
        17860   6.07888e-05
        17880   6.10615e-05
        17900    6.1335e-05
        17920   6.16095e-05
        17940   6.18849e-05
        17960   6.21612e-05
        17980   6.24384e-05
        18000   6.27165e-05
        18020   6.29956e-05
        18040   6.32756e-05
        18060   6.35565e-05
        18080   6.38384e-05
        18100   6.41212e-05
        18120   6.44049e-05
        18140   6.46896e-05
        18160   6.49752e-05
        18180   6.52618e-05
        18200   6.55493e-05
        18220   6.58377e-05
        18240   6.61271e-05
        18260   6.64175e-05
        18280   6.67088e-05
        18300   6.70011e-05
        18320   6.72943e-05
        18340   6.75885e-05
        18360   6.78836e-05
        18380   6.81797e-05
        18400   6.84768e-05
        18420   6.87748e-05
        18440   6.90738e-05
        18460   6.93738e-05
        18480   6.96747e-05
        18500   6.99767e-05
        18520   7.02796e-05
        18540   7.05834e-05
        18560   7.08883e-05
        18580   7.11942e-05
        18600    7.1501e-05
        18620   7.18088e-05
        18640   7.21177e-05
        18660   7.24275e-05
        18680   7.27383e-05
        18700   7.30501e-05
        18720   7.33629e-05
        18740   7.36767e-05
        18760   7.39915e-05
        18780   7.43073e-05
        18800   7.46241e-05
        18820   7.49419e-05
        18840   7.52608e-05
        18860   7.55806e-05
        18880   7.59015e-05
        18900   7.62234e-05
        18920   7.65463e-05
        18940   7.68702e-05
        18960   7.71952e-05
        18980   7.75212e-05
        19000   7.78482e-05
        19020   7.81763e-05
        19040   7.85053e-05
        19060   7.88354e-05
        19080   7.91666e-05
        19100   7.94988e-05
        19120    7.9832e-05
        19140   8.01663e-05
        19160   8.05016e-05
        19180    8.0838e-05
        19200   8.11754e-05
        19220   8.15139e-05
        19240   8.18534e-05
        19260    8.2194e-05
        19280   8.25356e-05
        19300   8.28783e-05
        19320   8.32221e-05
        19340    8.3567e-05
        19360   8.39129e-05
        19380   8.42598e-05
        19400   8.46079e-05
        19420    8.4957e-05
        19440   8.53072e-05
        19460   8.56585e-05
        19480   8.60108e-05
        19500   8.63643e-05
        19520   8.67188e-05
        19540   8.70744e-05
        19560   8.74311e-05
        19580   8.77889e-05
        19600   8.81478e-05
        19620   8.85078e-05
        19640   8.88689e-05
        19660    8.9231e-05
        19680   8.95943e-05
        19700   8.99587e-05
        19720   9.03242e-05
        19740   9.06908e-05
        19760   9.10586e-05
        19780   9.14274e-05
        19800   9.17973e-05
        19820   9.21684e-05
        19840   9.25406e-05
        19860   9.29139e-05
        19880   9.32884e-05
        19900   9.36639e-05
        19920   9.40406e-05
        19940   9.44184e-05
        19960   9.47974e-05
        19980   9.51775e-05
        20000   9.55587e-05
        20020   9.59411e-05
        20040   9.63246e-05
        20060   9.67093e-05
        20080   9.70951e-05
        20100   9.74821e-05
        20120   9.78702e-05
        20140   9.82595e-05
        20160   9.86499e-05
        20180   9.90415e-05
        20200   9.94342e-05
        20220   9.98282e-05
        20240   0.000100223
        20260   0.000100619
        20280   0.000101017
        20300   0.000101415
        20320   0.000101815
        20340   0.000102216
        20360   0.000102618
        20380   0.000103022
        20400   0.000103426
        20420   0.000103832
        20440   0.000104239
        20460   0.000104647
        20480   0.000105056
        20500   0.000105466
        20520   0.000105878
        20540   0.000106291
        20560   0.000106705
        20580    0.00010712
        20600   0.000107537
        20620   0.000107954
        20640   0.000108373
        20660   0.000108793
        20680   0.000109214
        20700   0.000109637
        20720   0.000110061
        20740   0.000110486
        20760   0.000110912
        20780   0.000111339
        20800   0.000111768
        20820   0.000112198
        20840   0.000112629
        20860   0.000113061
        20880   0.000113495
        20900    0.00011393
        20920   0.000114366
        20940   0.000114803
        20960   0.000115242
        20980   0.000115682
        21000   0.000116123
        21020   0.000116565
        21040   0.000117008
        21060   0.000117453
        21080   0.000117899
        21100   0.000118347
        21120   0.000118795
        21140   0.000119245
        21160   0.000119697
        21180   0.000120149
        21200   0.000120603
        21220   0.000121058
        21240   0.000121514
        21260   0.000121972
        21280   0.000122431
        21300   0.000122891
        21320   0.000123352
        21340   0.000123815
        21360   0.000124279