# Probe 0 (0.05 0.05 0.005)
#       Probe             0
#        Time
           20          0.04
           40          0.04
           60          0.04
           80          0.04
          100          0.04
          120          0.04
          140          0.04
          160          0.04
          180          0.04
          200          0.04
          220          0.04
          240          0.04
          260          0.04
          280          0.04
          300          0.04
          320          0.04
          340          0.04
          360          0.04
          380          0.04
          400          0.04
          420          0.04
          440          0.04
          460          0.04
          480          0.04
          500          0.04
          520          0.04
          540          0.04
          560          0.04
          580          0.04
          600          0.04
          620          0.04
          640          0.04
          660          0.04
          680          0.04
          700          0.04
          720          0.04
          740          0.04
          760          0.04
          780          0.04
          800          0.04
          820          0.04
          840          0.04
          860          0.04
          880          0.04
          900          0.04
          920          0.04
          940          0.04
          960          0.04
          980          0.04
         1000          0.04
         1020          0.04
         1040          0.04
         1060          0.04
         1080          0.04
         1100          0.04
         1120          0.04
         1140          0.04
         1160          0.04
         1180          0.04
         1200          0.04
         1220          0.04
         1240          0.04
         1260          0.04
         1280          0.04
         1300          0.04
         1320          0.04
         1340          0.04
         1360          0.04
         1380          0.04
         1400          0.04
         1420          0.04
         1440          0.04
         1460          0.04
         1480          0.04
         1500          0.04
         1520          0.04
         1540          0.04
         1560          0.04
         1580          0.04
         1600          0.04
         1620          0.04
         1640          0.04
         1660          0.04
         1680          0.04
         1700          0.04
         1720          0.04
         1740          0.04
         1760          0.04
         1780          0.04
         1800          0.04
         1820          0.04
         1840          0.04
         1860          0.04
         1880          0.04
         1900          0.04
         1920          0.04
         1940          0.04
         1960          0.04
         1980          0.04
         2000          0.04
         2020          0.04
         2040          0.04
         2060          0.04
         2080          0.04
         2100          0.04
         2120          0.04
         2140          0.04
         2160          0.04
         2180          0.04
         2200          0.04
         2220          0.04
         2240          0.04
         2260          0.04
         2280          0.04
         2300          0.04
         2320          0.04
         2340          0.04
         2360          0.04
         2380          0.04
         2400          0.04
         2420          0.04
         2440          0.04
         2460          0.04
         2480          0.04
         2500          0.04
         2520          0.04
         2540          0.04
         2560          0.04
         2580          0.04
         2600          0.04
         2620          0.04
         2640          0.04
         2660          0.04
         2680          0.04
         2700          0.04
         2720          0.04
         2740     0.0399999
         2760     0.0399999
         2780     0.0399999
         2800     0.0399999
         2820     0.0399999
         2840     0.0399999
         2860     0.0399999
         2880     0.0399999
         2900     0.0399999
         2920     0.0399999
         2940     0.0399999
         2960     0.0399999
         2980     0.0399999
         3000     0.0399999
         3020     0.0399999
         3040     0.0399999
         3060     0.0399999
         3080     0.0399999
         3100     0.0399999
         3120     0.0399999
         3140     0.0399999
         3160     0.0399999
         3180     0.0399999
         3200     0.0399999
         3220     0.0399999
         3240     0.0399999
         3260     0.0399999
         3280     0.0399999
         3300     0.0399999
         3320     0.0399999
         3340     0.0399999
         3360     0.0399999
         3380     0.0399999
         3400     0.0399999
         3420     0.0399999
         3440     0.0399999
         3460     0.0399999
         3480     0.0399999
         3500     0.0399999
         3520     0.0399999
         3540     0.0399999
         3560     0.0399999
         3580     0.0399999
         3600     0.0399999
         3620     0.0399999
         3640     0.0399999
         3660     0.0399999
         3680     0.0399999
         3700     0.0399999
         3720     0.0399999
         3740     0.0399999
         3760     0.0399999
         3780     0.0399999
         3800     0.0399999
         3820     0.0399999
         3840     0.0399999
         3860     0.0399999
         3880     0.0399998
         3900     0.0399998
         3920     0.0399998
         3940     0.0399998
         3960     0.0399998
         3980     0.0399998
         4000     0.0399998
         4020     0.0399998
         4040     0.0399998
         4060     0.0399998
         4080     0.0399998
         4100     0.0399998
         4120     0.0399998
         4140     0.0399998
         4160     0.0399998
         4180     0.0399998
         4200     0.0399998
         4220     0.0399998
         4240     0.0399998
         4260     0.0399998
         4280     0.0399998
         4300     0.0399998
         4320     0.0399998
         4340     0.0399998
         4360     0.0399998
         4380     0.0399998
         4400     0.0399998
         4420     0.0399998
         4440     0.0399998
         4460     0.0399997
         4480     0.0399997
         4500     0.0399997
         4520     0.0399997
         4540     0.0399997
         4560     0.0399997
         4580     0.0399997
         4600     0.0399997
         4620     0.0399997
         4640     0.0399997
         4660     0.0399997
         4680     0.0399997
         4700     0.0399997
         4720     0.0399997
         4740     0.0399997
         4760     0.0399997
         4780     0.0399997
         4800     0.0399997
         4820     0.0399997
         4840     0.0399997
         4860     0.0399997
         4880     0.0399996
         4900     0.0399996
         4920     0.0399996
         4940     0.0399996
         4960     0.0399996
         4980     0.0399996
         5000     0.0399996
         5020     0.0399996
         5040     0.0399996
         5060     0.0399996
         5080     0.0399996
         5100     0.0399996
         5120     0.0399996
         5140     0.0399996
         5160     0.0399996
         5180     0.0399996
         5200     0.0399995
         5220     0.0399995
         5240     0.0399995
         5260     0.0399995
         5280     0.0399995
         5300     0.0399995
         5320     0.0399995
         5340     0.0399995
         5360     0.0399995
         5380     0.0399995
         5400     0.0399995
         5420     0.0399995
         5440     0.0399995
         5460     0.0399995
         5480     0.0399994
         5500     0.0399994
         5520     0.0399994
         5540     0.0399994
         5560     0.0399994
         5580     0.0399994
         5600     0.0399994
         5620     0.0399994
         5640     0.0399994
         5660     0.0399994
         5680     0.0399994
         5700     0.0399994
         5720     0.0399993
         5740     0.0399993
         5760     0.0399993
         5780     0.0399993
         5800     0.0399993
         5820     0.0399993
         5840     0.0399993
         5860     0.0399993
         5880     0.0399993
         5900     0.0399993
         5920     0.0399993
         5940     0.0399992
         5960     0.0399992
         5980     0.0399992
         6000     0.0399992
         6020     0.0399992
         6040     0.0399992
         6060     0.0399992
         6080     0.0399992
         6100     0.0399992
         6120     0.0399991
         6140     0.0399991
         6160     0.0399991
         6180     0.0399991
         6200     0.0399991
         6220     0.0399991
         6240     0.0399991
         6260     0.0399991
         6280     0.0399991
         6300      0.039999
         6320      0.039999
         6340      0.039999
         6360      0.039999
         6380      0.039999
         6400      0.039999
         6420      0.039999
         6440      0.039999
         6460     0.0399989
         6480     0.0399989
         6500     0.0399989
         6520     0.0399989
         6540     0.0399989
         6560     0.0399989
         6580     0.0399989
         6600     0.0399989
         6620     0.0399988
         6640     0.0399988
         6660     0.0399988
         6680     0.0399988
         6700     0.0399988
         6720     0.0399988
         6740     0.0399988
         6760     0.0399987
         6780     0.0399987
         6800     0.0399987
         6820     0.0399987
         6840     0.0399987
         6860     0.0399987
         6880     0.0399986
         6900     0.0399986
         6920     0.0399986
         6940     0.0399986
         6960     0.0399986
         6980     0.0399986
         7000     0.0399986
         7020     0.0399985
         7040     0.0399985
         7060     0.0399985
         7080     0.0399985
         7100     0.0399985
         7120     0.0399985
         7140     0.0399984
         7160     0.0399984
         7180     0.0399984
         7200     0.0399984
         7220     0.0399984
         7240     0.0399983
         7260     0.0399983
         7280     0.0399983
         7300     0.0399983
         7320     0.0399983
         7340     0.0399983
         7360     0.0399982
         7380     0.0399982
         7400     0.0399982
         7420     0.0399982
         7440     0.0399982
         7460     0.0399981
         7480     0.0399981
         7500     0.0399981
         7520     0.0399981
         7540     0.0399981
         7560      0.039998
         7580      0.039998
         7600      0.039998
         7620      0.039998
         7640      0.039998
         7660     0.0399979
         7680     0.0399979
         7700     0.0399979
         7720     0.0399979
         7740     0.0399978
         7760     0.0399978
         7780     0.0399978
         7800     0.0399978
         7820     0.0399978
         7840     0.0399977
         7860     0.0399977
         7880     0.0399977
         7900     0.0399977
         7920     0.0399976
         7940     0.0399976
         7960     0.0399976
         7980     0.0399976
         8000     0.0399975
         8020     0.0399975
         8040     0.0399975
         8060     0.0399975
         8080     0.0399974
         8100     0.0399974
         8120     0.0399974
         8140     0.0399974
         8160     0.0399973
         8180     0.0399973
         8200     0.0399973
         8220     0.0399973
         8240     0.0399972
         8260     0.0399972
         8280     0.0399972
         8300     0.0399972
         8320     0.0399971
         8340     0.0399971
         8360     0.0399971
         8380      0.039997
         8400      0.039997
         8420      0.039997
         8440      0.039997
         8460     0.0399969
         8480     0.0399969
         8500     0.0399969
         8520     0.0399968
         8540     0.0399968
         8560     0.0399968
         8580     0.0399968
         8600     0.0399967
         8620     0.0399967
         8640     0.0399967
         8660     0.0399966
         8680     0.0399966
         8700     0.0399966
         8720     0.0399965
         8740     0.0399965
         8760     0.0399965
         8780     0.0399964
         8800     0.0399964
         8820     0.0399964
         8840     0.0399963
         8860     0.0399963
         8880     0.0399963
         8900     0.0399962
         8920     0.0399962
         8940     0.0399962
         8960     0.0399961
         8980     0.0399961
         9000     0.0399961
         9020      0.039996
         9040      0.039996
         9060      0.039996
         9080     0.0399959
         9100     0.0399959
         9120     0.0399959
         9140     0.0399958
         9160     0.0399958
         9180     0.0399957
         9200     0.0399957
         9220     0.0399957
         9240     0.0399956
         9260     0.0399956
         9280     0.0399956
         9300     0.0399955
         9320     0.0399955
         9340     0.0399954
         9360     0.0399954
         9380     0.0399954
         9400     0.0399953
         9420     0.0399953
         9440     0.0399952
         9460     0.0399952
         9480     0.0399952
         9500     0.0399951
         9520     0.0399951
         9540      0.039995
         9560      0.039995
         9580      0.039995
         9600     0.0399949
         9620     0.0399949
         9640     0.0399948
         9660     0.0399948
         9680     0.0399947
         9700     0.0399947
         9720     0.0399947
         9740     0.0399946
         9760     0.0399946
         9780     0.0399945
         9800     0.0399945
         9820     0.0399944
         9840     0.0399944
         9860     0.0399943
         9880     0.0399943
         9900     0.0399943
         9920     0.0399942
         9940     0.0399942
         9960     0.0399941
         9980     0.0399941
        10000      0.039994
        10020      0.039994
        10040     0.0399939
        10060     0.0399939
        10080     0.0399938
        10100     0.0399938
        10120     0.0399937
        10140     0.0399937
        10160     0.0399936
        10180     0.0399936
        10200     0.0399935
        10220     0.0399935
        10240     0.0399934
        10260     0.0399934
        10280     0.0399933
        10300     0.0399933
        10320     0.0399932
        10340     0.0399932
        10360     0.0399931
        10380     0.0399931
        10400      0.039993
        10420     0.0399929
        10440     0.0399929
        10460     0.0399928
        10480     0.0399928
        10500     0.0399927
        10520     0.0399927
        10540     0.0399926
        10560     0.0399926
        10580     0.0399925
        10600     0.0399924
        10620     0.0399924
        10640     0.0399923
        10660     0.0399923
        10680     0.0399922
        10700     0.0399922
        10720     0.0399921
        10740      0.039992
        10760      0.039992
        10780     0.0399919
        10800     0.0399919
        10820     0.0399918
        10840     0.0399917
        10860     0.0399917
        10880     0.0399916
        10900     0.0399916
        10920     0.0399915
        10940     0.0399914
        10960     0.0399914
        10980     0.0399913
        11000     0.0399912
        11020     0.0399912
        11040     0.0399911
        11060      0.039991
        11080      0.039991
        11100     0.0399909
        11120     0.0399909
        11140     0.0399908
        11160     0.0399907
        11180     0.0399907
        11200     0.0399906
        11220     0.0399905
        11240     0.0399905
        11260     0.0399904
        11280     0.0399903
        11300     0.0399902
        11320     0.0399902
        11340     0.0399901
        11360       0.03999
        11380       0.03999
        11400     0.0399899
        11420     0.0399898
        11440     0.0399898
        11460     0.0399897
        11480     0.0399896
        11500     0.0399895
        11520     0.0399895
        11540     0.0399894
        11560     0.0399893
        11580     0.0399892
        11600     0.0399892
        11620     0.0399891
        11640      0.039989
        11660     0.0399889
        11680     0.0399889
        11700     0.0399888
        11720     0.0399887
        11740     0.0399886
        11760     0.0399886
        11780     0.0399885
        11800     0.0399884
        11820     0.0399883
        11840     0.0399882
        11860     0.0399882
        11880     0.0399881
        11900      0.039988
        11920     0.0399879
        11940     0.0399878
        11960     0.0399878
        11980     0.0399877
        12000     0.0399876
        12020     0.0399875
        12040     0.0399874
        12060     0.0399873
        12080     0.0399873
        12100     0.0399872
        12120     0.0399871
        12140      0.039987
        12160     0.0399869
        12180     0.0399868
        12200     0.0399868
        12220     0.0399867
        12240     0.0399866
        12260     0.0399865
        12280     0.0399864
        12300     0.0399863
        12320     0.0399862
        12340     0.0399861
        12360      0.039986
        12380      0.039986
        12400     0.0399859
        12420     0.0399858
        12440     0.0399857
        12460     0.0399856
        12480     0.0399855
        12500     0.0399854
        12520     0.0399853
        12540     0.0399852
        12560     0.0399851
        12580      0.039985
        12600     0.0399849
        12620     0.0399848
        12640     0.0399847
        12660     0.0399846
        12680     0.0399845
        12700     0.0399844
        12720     0.0399843
        12740     0.0399842
        12760     0.0399841
        12780      0.039984
        12800     0.0399839
        12820     0.0399838
        12840     0.0399837
        12860     0.0399836
        12880     0.0399835
        12900     0.0399834
        12920     0.0399833
        12940     0.0399832
        12960     0.0399831
        12980      0.039983
        13000     0.0399829
        13020     0.0399828
        13040     0.0399827
        13060     0.0399826
        13080     0.0399825
        13100     0.0399824
        13120     0.0399823
        13140     0.0399822
        13160     0.0399821
        13180      0.039982
        13200     0.0399818
        13220     0.0399817
        13240     0.0399816
        13260     0.0399815
        13280     0.0399814
        13300     0.0399813
        13320     0.0399812
        13340     0.0399811
        13360      0.039981
        13380     0.0399808
        13400     0.0399807
        13420     0.0399806
        13440     0.0399805
        13460     0.0399804
        13480     0.0399803
        13500     0.0399801
        13520       0.03998
        13540     0.0399799
        13560     0.0399798
        13580     0.0399797
        13600     0.0399795
        13620     0.0399794
        13640     0.0399793
        13660     0.0399792
        13680     0.0399791
        13700     0.0399789
        13720     0.0399788
        13740     0.0399787
        13760     0.0399786
        13780     0.0399784
        13800     0.0399783
        13820     0.0399782
        13840     0.0399781
        13860     0.0399779
        13880     0.0399778
        13900     0.0399777
        13920     0.0399776
        13940     0.0399774
        13960     0.0399773
        13980     0.0399772
        14000      0.039977
        14020     0.0399769
        14040     0.0399768
        14060     0.0399766
        14080     0.0399765
        14100     0.0399764
        14120     0.0399762
        14140     0.0399761
        14160      0.039976
        14180     0.0399758
        14200     0.0399757
        14220     0.0399756
        14240     0.0399754
        14260     0.0399753
        14280     0.0399751
        14300      0.039975
        14320     0.0399749
        14340     0.0399747
        14360     0.0399746
        14380     0.0399744
        14400     0.0399743
        14420     0.0399742
        14440      0.039974
        14460     0.0399739
        14480     0.0399737
        14500     0.0399736
        14520     0.0399734
        14540     0.0399733
        14560     0.0399731
        14580      0.039973
        14600     0.0399728
        14620     0.0399727
        14640     0.0399725
        14660     0.0399724
        14680     0.0399722
        14700     0.0399721
        14720     0.0399719
        14740     0.0399718
        14760     0.0399716
        14780     0.0399715
        14800     0.0399713
        14820     0.0399712
        14840      0.039971
        14860     0.0399708
        14880     0.0399707
        14900     0.0399705
        14920     0.0399704
        14940     0.0399702
        14960     0.0399701
        14980     0.0399699
        15000     0.0399697
        15020     0.0399696
        15040     0.0399694
        15060     0.0399692
        15080     0.0399691
        15100     0.0399689
        15120     0.0399688
        15140     0.0399686
        15160     0.0399684
        15180     0.0399683
        15200     0.0399681
        15220     0.0399679
        15240     0.0399678
        15260     0.0399676
        15280     0.0399674
        15300     0.0399672
        15320     0.0399671
        15340     0.0399669
        15360     0.0399667
        15380     0.0399666
        15400     0.0399664
        15420     0.0399662
        15440      0.039966
        15460     0.0399659
        15480     0.0399657
        15500     0.0399655
        15520     0.0399653
        15540     0.0399651
        15560      0.039965
        15580     0.0399648
        15600     0.0399646
        15620     0.0399644
        15640     0.0399642
        15660      0.039964
        15680     0.0399639
        15700     0.0399637
        15720     0.0399635
        15740     0.0399633
        15760     0.0399631
        15780     0.0399629
        15800     0.0399627
        15820     0.0399626
        15840     0.0399624
        15860     0.0399622
        15880      0.039962
        15900     0.0399618
        15920     0.0399616
        15940     0.0399614
        15960     0.0399612
        15980      0.039961
        16000     0.0399608
        16020     0.0399606
        16040     0.0399604
        16060     0.0399602
        16080       0.03996
        16100     0.0399598
        16120     0.0399596
        16140     0.0399594
        16160     0.0399592
        16180      0.039959
        16200     0.0399588
        16220     0.0399586
        16240     0.0399584
        16260     0.0399582
        16280      0.039958
        16300     0.0399578
        16320     0.0399576
        16340     0.0399574
        16360     0.0399572
        16380      0.039957
        16400     0.0399568
        16420     0.0399565
        16440     0.0399563
        16460     0.0399561
        16480     0.0399559
        16500     0.0399557
        16520     0.0399555
        16540     0.0399553
        16560      0.039955
        16580     0.0399548
        16600     0.0399546
        16620     0.0399544
        16640     0.0399542
        16660      0.039954
        16680     0.0399537
        16700     0.0399535
        16720     0.0399533
        16740     0.0399531
        16760     0.0399528
        16780     0.0399526
        16800     0.0399524
        16820     0.0399522
        16840     0.0399519
        16860     0.0399517
        16880     0.0399515
        16900     0.0399512
        16920      0.039951
        16940     0.0399508
        16960     0.0399505
        16980     0.0399503
        17000     0.0399501
        17020     0.0399498
        17040     0.0399496
        17060     0.0399494
        17080     0.0399491
        17100     0.0399489
        17120     0.0399487
        17140     0.0399484
        17160     0.0399482
        17180     0.0399479
        17200     0.0399477
        17220     0.0399474
        17240     0.0399472
        17260      0.039947
        17280     0.0399467
        17300     0.0399465
        17320     0.0399462
        17340      0.039946
        17360     0.0399457
        17380     0.0399455
        17400     0.0399452
        17420      0.039945
        17440     0.0399447
        17460     0.0399445
        17480     0.0399442
        17500     0.0399439
        17520     0.0399437
        17540     0.0399434
        17560     0.0399432
        17580     0.0399429
        17600     0.0399427
        17620     0.0399424
        17640     0.0399421
        17660     0.0399419
        17680     0.0399416
        17700     0.0399413
        17720     0.0399411
        17740     0.0399408
        17760     0.0399405
        17780     0.0399403
        17800       0.03994
        17820     0.0399397
        17840     0.0399395
        17860     0.0399392
        17880     0.0399389
        17900     0.0399386
        17920     0.0399384
        17940     0.0399381
        17960     0.0399378
        17980     0.0399375
        18000     0.0399373
        18020      0.039937
        18040     0.0399367
        18060     0.0399364
        18080     0.0399361
        18100     0.0399359
        18120     0.0399356
        18140     0.0399353
        18160      0.039935
        18180     0.0399347
        18200     0.0399344
        18220     0.0399341
        18240     0.0399339
        18260     0.0399336
        18280     0.0399333
        18300      0.039933
        18320     0.0399327
        18340     0.0399324
        18360     0.0399321
        18380     0.0399318
        18400     0.0399315
        18420     0.0399312
        18440     0.0399309
        18460     0.0399306
        18480     0.0399303
        18500       0.03993
        18520     0.0399297
        18540     0.0399294
        18560     0.0399291
        18580     0.0399288
        18600     0.0399285
        18620     0.0399282
        18640     0.0399279
        18660     0.0399276
        18680     0.0399272
        18700     0.0399269
        18720     0.0399266
        18740     0.0399263
        18760      0.039926
        18780     0.0399257
        18800     0.0399254
        18820      0.039925
        18840     0.0399247
        18860     0.0399244
        18880     0.0399241
        18900     0.0399238
        18920     0.0399234
        18940     0.0399231
        18960     0.0399228
        18980     0.0399225
        19000     0.0399221
        19020     0.0399218
        19040     0.0399215
        19060     0.0399211
        19080     0.0399208
        19100     0.0399205
        19120     0.0399202
        19140     0.0399198
        19160     0.0399195
        19180     0.0399191
        19200     0.0399188
        19220     0.0399185
        19240     0.0399181
        19260     0.0399178
        19280     0.0399174
        19300     0.0399171
        19320     0.0399168
        19340     0.0399164
        19360     0.0399161
        19380     0.0399157
        19400     0.0399154
        19420      0.039915
        19440     0.0399147
        19460     0.0399143
        19480      0.039914
        19500     0.0399136
        19520     0.0399133
        19540     0.0399129
        19560     0.0399126
        19580     0.0399122
        19600     0.0399118
        19620     0.0399115
        19640     0.0399111
        19660     0.0399108
        19680     0.0399104
        19700       0.03991
        19720     0.0399097
        19740     0.0399093
        19760     0.0399089
        19780     0.0399086
        19800     0.0399082
        19820     0.0399078
        19840     0.0399074
        19860     0.0399071
        19880     0.0399067
        19900     0.0399063
        19920     0.0399059
        19940     0.0399056
        19960     0.0399052
        19980     0.0399048
        20000     0.0399044
        20020      0.039904
        20040     0.0399037
        20060     0.0399033
        20080     0.0399029
        20100     0.0399025
        20120     0.0399021
        20140     0.0399017
        20160     0.0399013
        20180     0.0399009
        20200     0.0399005
        20220     0.0399002
        20240     0.0398998
        20260     0.0398994
        20280      0.039899
        20300     0.0398986
        20320     0.0398982
        20340     0.0398978
        20360     0.0398974
        20380      0.039897
        20400     0.0398966
        20420     0.0398962
        20440     0.0398957
        20460     0.0398953
        20480     0.0398949
        20500     0.0398945
        20520     0.0398941
        20540     0.0398937
        20560     0.0398933
        20580     0.0398929
        20600     0.0398924
        20620      0.039892
        20640     0.0398916
        20660     0.0398912
        20680     0.0398908
        20700     0.0398903
        20720     0.0398899
        20740     0.0398895
        20760     0.0398891
        20780     0.0398886
        20800     0.0398882
        20820     0.0398878
        20840     0.0398874
        20860     0.0398869
        20880     0.0398865
        20900     0.0398861
        20920     0.0398856
        20940     0.0398852
        20960     0.0398847
        20980     0.0398843
        21000     0.0398839
        21020     0.0398834
        21040      0.039883
        21060     0.0398825
        21080     0.0398821
        21100     0.0398816
        21120     0.0398812
        21140     0.0398807
        21160     0.0398803
        21180     0.0398798
        21200     0.0398794
        21220     0.0398789
        21240     0.0398785
        21260      0.039878
        21280     0.0398776
        21300     0.0398771
        21320     0.0398766
        21340     0.0398762
        21360     0.0398757