# Probe 0 (0.05 0.05 0.005)
#       Probe             0
#        Time
           20   2.26494e+09
           40   2.26494e+09
           60   2.26494e+09
           80   2.26494e+09
          100   2.26494e+09
          120   2.26494e+09
          140   2.26494e+09
          160   2.26494e+09
          180   2.26494e+09
          200   2.26494e+09
          220   2.26494e+09
          240   2.26494e+09
          260   2.26494e+09
          280   2.26494e+09
          300   2.26494e+09
          320   2.26494e+09
          340   2.26494e+09
          360   2.26494e+09
          380   2.26494e+09
          400   2.26494e+09
          420   2.26494e+09
          440   2.26494e+09
          460   2.26494e+09
          480   2.26494e+09
          500   2.26494e+09
          520   2.26494e+09
          540   2.26494e+09
          560   2.26494e+09
          580   2.26494e+09
          600   2.26494e+09
          620   2.26494e+09
          640   2.26494e+09
          660   2.26494e+09
          680   2.26494e+09
          700   2.26494e+09
          720   2.26494e+09
          740   2.26494e+09
          760   2.26494e+09
          780   2.26494e+09
          800   2.26494e+09
          820   2.26494e+09
          840   2.26494e+09
          860   2.26494e+09
          880   2.26494e+09
          900   2.26494e+09
          920   2.26494e+09
          940   2.26494e+09
          960   2.26494e+09
          980   2.26494e+09
         1000   2.26494e+09
         1020   2.26494e+09
         1040   2.26494e+09
         1060   2.26494e+09
         1080   2.26494e+09
         1100   2.26494e+09
         1120   2.26494e+09
         1140   2.26494e+09
         1160   2.26494e+09
         1180   2.26494e+09
         1200   2.26494e+09
         1220   2.26494e+09
         1240   2.26494e+09
         1260   2.26494e+09
         1280   2.26494e+09
         1300   2.26494e+09
         1320   2.26494e+09
         1340   2.26494e+09
         1360   2.26494e+09
         1380   2.26494e+09
         1400   2.26494e+09
         1420   2.26494e+09
         1440   2.26494e+09
         1460   2.26494e+09
         1480   2.26494e+09
         1500   2.26494e+09
         1520   2.26494e+09
         1540   2.26494e+09
         1560   2.26494e+09
         1580   2.26494e+09
         1600   2.26494e+09
         1620   2.26494e+09
         1640   2.26494e+09
         1660   2.26494e+09
         1680   2.26494e+09
         1700   2.26494e+09
         1720   2.26494e+09
         1740   2.26494e+09
         1760   2.26494e+09
         1780   2.26494e+09
         1800   2.26494e+09
         1820   2.26494e+09
         1840   2.26494e+09
         1860   2.26494e+09
         1880   2.26494e+09
         1900   2.26494e+09
         1920   2.26494e+09
         1940   2.26494e+09
         1960   2.26494e+09
         1980   2.26494e+09
         2000   2.26494e+09
         2020   2.26494e+09
         2040   2.26494e+09
         2060   2.26494e+09
         2080   2.26494e+09
         2100   2.26494e+09
         2120   2.26494e+09
         2140   2.26494e+09
         2160   2.26494e+09
         2180   2.26494e+09
         2200   2.26494e+09
         2220   2.26494e+09
         2240   2.26494e+09
         2260   2.26494e+09
         2280   2.26494e+09
         2300   2.26494e+09
         2320   2.26494e+09
         2340   2.26494e+09
         2360   2.26494e+09
         2380   2.26494e+09
         2400   2.26494e+09
         2420   2.26494e+09
         2440   2.26494e+09
         2460   2.26494e+09
         2480   2.26494e+09
         2500   2.26494e+09
         2520   2.26494e+09
         2540   2.26494e+09
         2560   2.26494e+09
         2580   2.26494e+09
         2600   2.26494e+09
         2620   2.26494e+09
         2640   2.26494e+09
         2660   2.26494e+09
         2680   2.26494e+09
         2700   2.26494e+09
         2720   2.26494e+09
         2740   2.26494e+09
         2760   2.26494e+09
         2780   2.26494e+09
         2800   2.26494e+09
         2820   2.26494e+09
         2840   2.26494e+09
         2860   2.26494e+09
         2880   2.26494e+09
         2900   2.26494e+09
         2920   2.26494e+09
         2940   2.26494e+09
         2960   2.26494e+09
         2980   2.26494e+09
         3000   2.26494e+09
         3020   2.26494e+09
         3040   2.26494e+09
         3060   2.26494e+09
         3080   2.26494e+09
         3100   2.26494e+09
         3120   2.26494e+09
         3140   2.26494e+09
         3160   2.26494e+09
         3180   2.26494e+09
         3200   2.26494e+09
         3220   2.26494e+09
         3240   2.26494e+09
         3260   2.26494e+09
         3280   2.26494e+09
         3300   2.26494e+09
         3320   2.26494e+09
         3340   2.26494e+09
         3360   2.26494e+09
         3380   2.26494e+09
         3400   2.26494e+09
         3420   2.26494e+09
         3440   2.26494e+09
         3460   2.26494e+09
         3480   2.26494e+09
         3500   2.26494e+09
         3520   2.26494e+09
         3540   2.26494e+09
         3560   2.26494e+09
         3580   2.26494e+09
         3600   2.26494e+09
         3620   2.26494e+09
         3640   2.26494e+09
         3660   2.26494e+09
         3680   2.26494e+09
         3700   2.26494e+09
         3720   2.26494e+09
         3740   2.26494e+09
         3760   2.26494e+09
         3780   2.26494e+09
         3800   2.26494e+09
         3820   2.26494e+09
         3840   2.26494e+09
         3860   2.26494e+09
         3880   2.26494e+09
         3900   2.26494e+09
         3920   2.26494e+09
         3940   2.26494e+09
         3960   2.26494e+09
         3980   2.26494e+09
         4000   2.26494e+09
         4020   2.26494e+09
         4040   2.26494e+09
         4060   2.26494e+09
         4080   2.26494e+09
         4100   2.26494e+09
         4120   2.26494e+09
         4140   2.26494e+09
         4160   2.26494e+09
         4180   2.26494e+09
         4200   2.26494e+09
         4220   2.26494e+09
         4240   2.26494e+09
         4260   2.26494e+09
         4280   2.26494e+09
         4300   2.26494e+09
         4320   2.26494e+09
         4340   2.26494e+09
         4360   2.26494e+09
         4380   2.26494e+09
         4400   2.26494e+09
         4420   2.26494e+09
         4440   2.26494e+09
         4460   2.26494e+09
         4480   2.26494e+09
         4500   2.26494e+09
         4520   2.26494e+09
         4540   2.26494e+09
         4560   2.26494e+09
         4580   2.26494e+09
         4600   2.26494e+09
         4620   2.26494e+09
         4640   2.26494e+09
         4660   2.26494e+09
         4680   2.26494e+09
         4700   2.26494e+09
         4720   2.26494e+09
         4740   2.26494e+09
         4760   2.26494e+09
         4780   2.26494e+09
         4800   2.26494e+09
         4820   2.26494e+09
         4840   2.26494e+09
         4860   2.26494e+09
         4880   2.26494e+09
         4900   2.26494e+09
         4920   2.26494e+09
         4940   2.26494e+09
         4960   2.26494e+09
         4980   2.26494e+09
         5000   2.26494e+09
         5020   2.26494e+09
         5040   2.26494e+09
         5060   2.26494e+09
         5080   2.26494e+09
         5100   2.26494e+09
         5120   2.26494e+09
         5140   2.26494e+09
         5160   2.26494e+09
         5180   2.26494e+09
         5200   2.26494e+09
         5220   2.26494e+09
         5240   2.26494e+09
         5260   2.26494e+09
         5280   2.26494e+09
         5300   2.26494e+09
         5320   2.26494e+09
         5340   2.26494e+09
         5360   2.26494e+09
         5380   2.26494e+09
         5400   2.26494e+09
         5420   2.26494e+09
         5440   2.26494e+09
         5460   2.26494e+09
         5480   2.26494e+09
         5500   2.26494e+09
         5520   2.26494e+09
         5540   2.26494e+09
         5560   2.26494e+09
         5580   2.26494e+09
         5600   2.26494e+09
         5620   2.26494e+09
         5640   2.26494e+09
         5660   2.26493e+09
         5680   2.26493e+09
         5700   2.26493e+09
         5720   2.26493e+09
         5740   2.26493e+09
         5760   2.26493e+09
         5780   2.26493e+09
         5800   2.26493e+09
         5820   2.26493e+09
         5840   2.26493e+09
         5860   2.26493e+09
         5880   2.26493e+09
         5900   2.26493e+09
         5920   2.26493e+09
         5940   2.26493e+09
         5960   2.26493e+09
         5980   2.26493e+09
         6000   2.26493e+09
         6020   2.26493e+09
         6040   2.26493e+09
         6060   2.26493e+09
         6080   2.26493e+09
         6100   2.26493e+09
         6120   2.26493e+09
         6140   2.26493e+09
         6160   2.26493e+09
         6180   2.26493e+09
         6200   2.26493e+09
         6220   2.26493e+09
         6240   2.26493e+09
         6260   2.26493e+09
         6280   2.26493e+09
         6300   2.26493e+09
         6320   2.26493e+09
         6340   2.26493e+09
         6360   2.26493e+09
         6380   2.26493e+09
         6400   2.26493e+09
         6420   2.26493e+09
         6440   2.26493e+09
         6460   2.26493e+09
         6480   2.26493e+09
         6500   2.26493e+09
         6520   2.26493e+09
         6540   2.26493e+09
         6560   2.26493e+09
         6580   2.26493e+09
         6600   2.26493e+09
         6620   2.26493e+09
         6640   2.26493e+09
         6660   2.26493e+09
         6680   2.26493e+09
         6700   2.26493e+09
         6720   2.26493e+09
         6740   2.26493e+09
         6760   2.26493e+09
         6780   2.26493e+09
         6800   2.26493e+09
         6820   2.26493e+09
         6840   2.26493e+09
         6860   2.26493e+09
         6880   2.26493e+09
         6900   2.26492e+09
         6920   2.26492e+09
         6940   2.26492e+09
         6960   2.26492e+09
         6980   2.26492e+09
         7000   2.26492e+09
         7020   2.26492e+09
         7040   2.26492e+09
         7060   2.26492e+09
         7080   2.26492e+09
         7100   2.26492e+09
         7120   2.26492e+09
         7140   2.26492e+09
         7160   2.26492e+09
         7180   2.26492e+09
         7200   2.26492e+09
         7220   2.26492e+09
         7240   2.26492e+09
         7260   2.26492e+09
         7280   2.26492e+09
         7300   2.26492e+09
         7320   2.26492e+09
         7340   2.26492e+09
         7360   2.26492e+09
         7380   2.26492e+09
         7400   2.26492e+09
         7420   2.26492e+09
         7440   2.26492e+09
         7460   2.26492e+09
         7480   2.26492e+09
         7500   2.26492e+09
         7520   2.26492e+09
         7540   2.26492e+09
         7560   2.26492e+09
         7580   2.26492e+09
         7600   2.26492e+09
         7620   2.26492e+09
         7640   2.26492e+09
         7660   2.26492e+09
         7680   2.26491e+09
         7700   2.26491e+09
         7720   2.26491e+09
         7740   2.26491e+09
         7760   2.26491e+09
         7780   2.26491e+09
         7800   2.26491e+09
         7820   2.26491e+09
         7840   2.26491e+09
         7860   2.26491e+09
         7880   2.26491e+09
         7900   2.26491e+09
         7920   2.26491e+09
         7940   2.26491e+09
         7960   2.26491e+09
         7980   2.26491e+09
         8000   2.26491e+09
         8020   2.26491e+09
         8040   2.26491e+09
         8060   2.26491e+09
         8080   2.26491e+09
         8100   2.26491e+09
         8120   2.26491e+09
         8140   2.26491e+09
         8160   2.26491e+09
         8180   2.26491e+09
         8200   2.26491e+09
         8220   2.26491e+09
         8240   2.26491e+09
         8260   2.26491e+09
         8280    2.2649e+09
         8300    2.2649e+09
         8320    2.2649e+09
         8340    2.2649e+09
         8360    2.2649e+09
         8380    2.2649e+09
         8400    2.2649e+09
         8420    2.2649e+09
         8440    2.2649e+09
         8460    2.2649e+09
         8480    2.2649e+09
         8500    2.2649e+09
         8520    2.2649e+09
         8540    2.2649e+09
         8560    2.2649e+09
         8580    2.2649e+09
         8600    2.2649e+09
         8620    2.2649e+09
         8640    2.2649e+09
         8660    2.2649e+09
         8680    2.2649e+09
         8700    2.2649e+09
         8720    2.2649e+09
         8740    2.2649e+09
         8760    2.2649e+09
         8780   2.26489e+09
         8800   2.26489e+09
         8820   2.26489e+09
         8840   2.26489e+09
         8860   2.26489e+09
         8880   2.26489e+09
         8900   2.26489e+09
         8920   2.26489e+09
         8940   2.26489e+09
         8960   2.26489e+09
         8980   2.26489e+09
         9000   2.26489e+09
         9020   2.26489e+09
         9040   2.26489e+09
         9060   2.26489e+09
         9080   2.26489e+09
         9100   2.26489e+09
         9120   2.26489e+09
         9140   2.26489e+09
         9160   2.26489e+09
         9180   2.26489e+09
         9200   2.26488e+09
         9220   2.26488e+09
         9240   2.26488e+09
         9260   2.26488e+09
         9280   2.26488e+09
         9300   2.26488e+09
         9320   2.26488e+09
         9340   2.26488e+09
         9360   2.26488e+09
         9380   2.26488e+09
         9400   2.26488e+09
         9420   2.26488e+09
         9440   2.26488e+09
         9460   2.26488e+09
         9480   2.26488e+09
         9500   2.26488e+09
         9520   2.26488e+09
         9540   2.26488e+09
         9560   2.26487e+09
         9580   2.26487e+09
         9600   2.26487e+09
         9620   2.26487e+09
         9640   2.26487e+09
         9660   2.26487e+09
         9680   2.26487e+09
         9700   2.26487e+09
         9720   2.26487e+09
         9740   2.26487e+09
         9760   2.26487e+09
         9780   2.26487e+09
         9800   2.26487e+09
         9820   2.26487e+09
         9840   2.26487e+09
         9860   2.26487e+09
         9880   2.26487e+09
         9900   2.26486e+09
         9920   2.26486e+09
         9940   2.26486e+09
         9960   2.26486e+09
         9980   2.26486e+09
        10000   2.26486e+09
        10020   2.26486e+09
        10040   2.26486e+09
        10060   2.26486e+09
        10080   2.26486e+09
        10100   2.26486e+09
        10120   2.26486e+09
        10140   2.26486e+09
        10160   2.26486e+09
        10180   2.26486e+09
        10200   2.26485e+09
        10220   2.26485e+09
        10240   2.26485e+09
        10260   2.26485e+09
        10280   2.26485e+09
        10300   2.26485e+09
        10320   2.26485e+09
        10340   2.26485e+09
        10360   2.26485e+09
        10380   2.26485e+09
        10400   2.26485e+09
        10420   2.26485e+09
        10440   2.26485e+09
        10460   2.26485e+09
        10480   2.26484e+09
        10500   2.26484e+09
        10520   2.26484e+09
        10540   2.26484e+09
        10560   2.26484e+09
        10580   2.26484e+09
        10600   2.26484e+09
        10620   2.26484e+09
        10640   2.26484e+09
        10660   2.26484e+09
        10680   2.26484e+09
        10700   2.26484e+09
        10720   2.26484e+09
        10740   2.26483e+09
        10760   2.26483e+09
        10780   2.26483e+09
        10800   2.26483e+09
        10820   2.26483e+09
        10840   2.26483e+09
        10860   2.26483e+09
        10880   2.26483e+09
        10900   2.26483e+09
        10920   2.26483e+09
        10940   2.26483e+09
        10960   2.26483e+09
        10980   2.26482e+09
        11000   2.26482e+09
        11020   2.26482e+09
        11040   2.26482e+09
        11060   2.26482e+09
        11080   2.26482e+09
        11100   2.26482e+09
        11120   2.26482e+09
        11140   2.26482e+09
        11160   2.26482e+09
        11180   2.26482e+09
        11200   2.26481e+09
        11220   2.26481e+09
        11240   2.26481e+09
        11260   2.26481e+09
        11280   2.26481e+09
        11300   2.26481e+09
        11320   2.26481e+09
        11340   2.26481e+09
        11360   2.26481e+09
        11380   2.26481e+09
        11400    2.2648e+09
        11420    2.2648e+09
        11440    2.2648e+09
        11460    2.2648e+09
        11480    2.2648e+09
        11500    2.2648e+09
        11520    2.2648e+09
        11540    2.2648e+09
        11560    2.2648e+09
        11580    2.2648e+09
        11600    2.2648e+09
        11620   2.26479e+09
        11640   2.26479e+09
        11660   2.26479e+09
        11680   2.26479e+09
        11700   2.26479e+09
        11720   2.26479e+09
        11740   2.26479e+09
        11760   2.26479e+09
        11780   2.26479e+09
        11800   2.26478e+09
        11820   2.26478e+09
        11840   2.26478e+09
        11860   2.26478e+09
        11880   2.26478e+09
        11900   2.26478e+09
        11920   2.26478e+09
        11940   2.26478e+09
        11960   2.26478e+09
        11980   2.26477e+09
        12000   2.26477e+09
        12020   2.26477e+09
        12040   2.26477e+09
        12060   2.26477e+09
        12080   2.26477e+09
        12100   2.26477e+09
        12120   2.26477e+09
        12140   2.26477e+09
        12160   2.26476e+09
        12180   2.26476e+09
        12200   2.26476e+09
        12220   2.26476e+09
        12240   2.26476e+09
        12260   2.26476e+09
        12280   2.26476e+09
        12300   2.26476e+09
        12320   2.26475e+09
        12340   2.26475e+09
        12360   2.26475e+09
        12380   2.26475e+09
        12400   2.26475e+09
        12420   2.26475e+09
        12440   2.26475e+09
        12460   2.26475e+09
        12480   2.26474e+09
        12500   2.26474e+09
        12520   2.26474e+09
        12540   2.26474e+09
        12560   2.26474e+09
        12580   2.26474e+09
        12600   2.26474e+09
        12620   2.26474e+09
        12640   2.26473e+09
        12660   2.26473e+09
        12680   2.26473e+09
        12700   2.26473e+09
        12720   2.26473e+09
        12740   2.26473e+09
        12760   2.26473e+09
        12780   2.26472e+09
        12800   2.26472e+09
        12820   2.26472e+09
        12840   2.26472e+09
        12860   2.26472e+09
        12880   2.26472e+09
        12900   2.26472e+09
        12920   2.26472e+09
        12940   2.26471e+09
        12960   2.26471e+09
        12980   2.26471e+09
        13000   2.26471e+09
        13020   2.26471e+09
        13040   2.26471e+09
        13060    2.2647e+09
        13080    2.2647e+09
        13100    2.2647e+09
        13120    2.2647e+09
        13140    2.2647e+09
        13160    2.2647e+09
        13180    2.2647e+09
        13200   2.26469e+09
        13220   2.26469e+09
        13240   2.26469e+09
        13260   2.26469e+09
        13280   2.26469e+09
        13300   2.26469e+09
        13320   2.26469e+09
        13340   2.26468e+09
        13360   2.26468e+09
        13380   2.26468e+09
        13400   2.26468e+09
        13420   2.26468e+09
        13440   2.26468e+09
        13460   2.26467e+09
        13480   2.26467e+09
        13500   2.26467e+09
        13520   2.26467e+09
        13540   2.26467e+09
        13560   2.26467e+09
        13580   2.26466e+09
        13600   2.26466e+09
        13620   2.26466e+09
        13640   2.26466e+09
        13660   2.26466e+09
        13680   2.26466e+09
        13700   2.26465e+09
        13720   2.26465e+09
        13740   2.26465e+09
        13760   2.26465e+09
        13780   2.26465e+09
        13800   2.26465e+09
        13820   2.26464e+09
        13840   2.26464e+09
        13860   2.26464e+09
        13880   2.26464e+09
        13900   2.26464e+09
        13920   2.26464e+09
        13940   2.26463e+09
        13960   2.26463e+09
        13980   2.26463e+09
        14000   2.26463e+09
        14020   2.26463e+09
        14040   2.26462e+09
        14060   2.26462e+09
        14080   2.26462e+09
        14100   2.26462e+09
        14120   2.26462e+09
        14140   2.26462e+09
        14160   2.26461e+09
        14180   2.26461e+09
        14200   2.26461e+09
        14220   2.26461e+09
        14240   2.26461e+09
        14260    2.2646e+09
        14280    2.2646e+09
        14300    2.2646e+09
        14320    2.2646e+09
        14340    2.2646e+09
        14360   2.26459e+09
        14380   2.26459e+09
        14400   2.26459e+09
        14420   2.26459e+09
        14440   2.26459e+09
        14460   2.26459e+09
        14480   2.26458e+09
        14500   2.26458e+09
        14520   2.26458e+09
        14540   2.26458e+09
        14560   2.26457e+09
        14580   2.26457e+09
        14600   2.26457e+09
        14620   2.26457e+09
        14640   2.26457e+09
        14660   2.26456e+09
        14680   2.26456e+09
        14700   2.26456e+09
        14720   2.26456e+09
        14740   2.26456e+09
        14760   2.26455e+09
        14780   2.26455e+09
        14800   2.26455e+09
        14820   2.26455e+09
        14840   2.26455e+09
        14860   2.26454e+09
        14880   2.26454e+09
        14900   2.26454e+09
        14920   2.26454e+09
        14940   2.26453e+09
        14960   2.26453e+09
        14980   2.26453e+09
        15000   2.26453e+09
        15020   2.26453e+09
        15040   2.26452e+09
        15060   2.26452e+09
        15080   2.26452e+09
        15100   2.26452e+09
        15120   2.26451e+09
        15140   2.26451e+09
        15160   2.26451e+09
        15180   2.26451e+09
        15200   2.26451e+09
        15220    2.2645e+09
        15240    2.2645e+09
        15260    2.2645e+09
        15280    2.2645e+09
        15300   2.26449e+09
        15320   2.26449e+09
        15340   2.26449e+09
        15360   2.26449e+09
        15380   2.26448e+09
        15400   2.26448e+09
        15420   2.26448e+09
        15440   2.26448e+09
        15460   2.26448e+09
        15480   2.26447e+09
        15500   2.26447e+09
        15520   2.26447e+09
        15540   2.26447e+09
        15560   2.26446e+09
        15580   2.26446e+09
        15600   2.26446e+09
        15620   2.26446e+09
        15640   2.26445e+09
        15660   2.26445e+09
        15680   2.26445e+09
        15700   2.26445e+09
        15720   2.26444e+09
        15740   2.26444e+09
        15760   2.26444e+09
        15780   2.26444e+09
        15800   2.26443e+09
        15820   2.26443e+09
        15840   2.26443e+09
        15860   2.26442e+09
        15880   2.26442e+09
        15900   2.26442e+09
        15920   2.26442e+09
        15940   2.26441e+09
        15960   2.26441e+09
        15980   2.26441e+09
        16000   2.26441e+09
        16020    2.2644e+09
        16040    2.2644e+09
        16060    2.2644e+09
        16080    2.2644e+09
        16100   2.26439e+09
        16120   2.26439e+09
        16140   2.26439e+09
        16160   2.26438e+09
        16180   2.26438e+09
        16200   2.26438e+09
        16220   2.26438e+09
        16240   2.26437e+09
        16260   2.26437e+09
        16280   2.26437e+09
        16300   2.26436e+09
        16320   2.26436e+09
        16340   2.26436e+09
        16360   2.26436e+09
        16380   2.26435e+09
        16400   2.26435e+09
        16420   2.26435e+09
        16440   2.26434e+09
        16460   2.26434e+09
        16480   2.26434e+09
        16500   2.26434e+09
        16520   2.26433e+09
        16540   2.26433e+09
        16560   2.26433e+09
        16580   2.26432e+09
        16600   2.26432e+09
        16620   2.26432e+09
        16640   2.26431e+09
        16660   2.26431e+09
        16680   2.26431e+09
        16700   2.26431e+09
        16720    2.2643e+09
        16740    2.2643e+09
        16760    2.2643e+09
        16780   2.26429e+09
        16800   2.26429e+09
        16820   2.26429e+09
        16840   2.26428e+09
        16860   2.26428e+09
        16880   2.26428e+09
        16900   2.26427e+09
        16920   2.26427e+09
        16940   2.26427e+09
        16960   2.26426e+09
        16980   2.26426e+09
        17000   2.26426e+09
        17020   2.26426e+09
        17040   2.26425e+09
        17060   2.26425e+09
        17080   2.26425e+09
        17100   2.26424e+09
        17120   2.26424e+09
        17140   2.26424e+09
        17160   2.26423e+09
        17180   2.26423e+09
        17200   2.26423e+09
        17220   2.26422e+09
        17240   2.26422e+09
        17260   2.26422e+09
        17280   2.26421e+09
        17300   2.26421e+09
        17320   2.26421e+09
        17340    2.2642e+09
        17360    2.2642e+09
        17380    2.2642e+09
        17400   2.26419e+09
        17420   2.26419e+09
        17440   2.26418e+09
        17460   2.26418e+09
        17480   2.26418e+09
        17500   2.26417e+09
        17520   2.26417e+09
        17540   2.26417e+09
        17560   2.26416e+09
        17580   2.26416e+09
        17600   2.26416e+09
        17620   2.26415e+09
        17640   2.26415e+09
        17660   2.26415e+09
        17680   2.26414e+09
        17700   2.26414e+09
        17720   2.26413e+09
        17740   2.26413e+09
        17760   2.26413e+09
        17780   2.26412e+09
        17800   2.26412e+09
        17820   2.26412e+09
        17840   2.26411e+09
        17860   2.26411e+09
        17880   2.26411e+09
        17900    2.2641e+09
        17920    2.2641e+09
        17940   2.26409e+09
        17960   2.26409e+09
        17980   2.26409e+09
        18000   2.26408e+09
        18020   2.26408e+09
        18040   2.26407e+09
        18060   2.26407e+09
        18080   2.26407e+09
        18100   2.26406e+09
        18120   2.26406e+09
        18140   2.26406e+09
        18160   2.26405e+09
        18180   2.26405e+09
        18200   2.26404e+09
        18220   2.26404e+09
        18240   2.26404e+09
        18260   2.26403e+09
        18280   2.26403e+09
        18300   2.26402e+09
        18320   2.26402e+09
        18340   2.26402e+09
        18360   2.26401e+09
        18380   2.26401e+09
        18400     2.264e+09
        18420     2.264e+09
        18440     2.264e+09
        18460   2.26399e+09
        18480   2.26399e+09
        18500   2.26398e+09
        18520   2.26398e+09
        18540   2.26397e+09
        18560   2.26397e+09
        18580   2.26397e+09
        18600   2.26396e+09
        18620   2.26396e+09
        18640   2.26395e+09
        18660   2.26395e+09
        18680   2.26394e+09
        18700   2.26394e+09
        18720   2.26394e+09
        18740   2.26393e+09
        18760   2.26393e+09
        18780   2.26392e+09
        18800   2.26392e+09
        18820   2.26391e+09
        18840   2.26391e+09
        18860   2.26391e+09
        18880    2.2639e+09
        18900    2.2639e+09
        18920   2.26389e+09
        18940   2.26389e+09
        18960   2.26388e+09
        18980   2.26388e+09
        19000   2.26387e+09
        19020   2.26387e+09
        19040   2.26387e+09
        19060   2.26386e+09
        19080   2.26386e+09
        19100   2.26385e+09
        19120   2.26385e+09
        19140   2.26384e+09
        19160   2.26384e+09
        19180   2.26383e+09
        19200   2.26383e+09
        19220   2.26382e+09
        19240   2.26382e+09
        19260   2.26381e+09
        19280   2.26381e+09
        19300   2.26381e+09
        19320    2.2638e+09
        19340    2.2638e+09
        19360   2.26379e+09
        19380   2.26379e+09
        19400   2.26378e+09
        19420   2.26378e+09
        19440   2.26377e+09
        19460   2.26377e+09
        19480   2.26376e+09
        19500   2.26376e+09
        19520   2.26375e+09
        19540   2.26375e+09
        19560   2.26374e+09
        19580   2.26374e+09
        19600   2.26373e+09
        19620   2.26373e+09
        19640   2.26372e+09
        19660   2.26372e+09
        19680   2.26371e+09
        19700   2.26371e+09
        19720    2.2637e+09
        19740    2.2637e+09
        19760   2.26369e+09
        19780   2.26369e+09
        19800   2.26368e+09
        19820   2.26368e+09
        19840   2.26367e+09
        19860   2.26367e+09
        19880   2.26366e+09
        19900   2.26366e+09
        19920   2.26365e+09
        19940   2.26365e+09
        19960   2.26364e+09
        19980   2.26364e+09
        20000   2.26363e+09
        20020   2.26363e+09
        20040   2.26362e+09
        20060   2.26362e+09
        20080   2.26361e+09
        20100    2.2636e+09
        20120    2.2636e+09
        20140   2.26359e+09
        20160   2.26359e+09
        20180   2.26358e+09
        20200   2.26358e+09
        20220   2.26357e+09
        20240   2.26357e+09
        20260   2.26356e+09
        20280   2.26356e+09
        20300   2.26355e+09
        20320   2.26355e+09
        20340   2.26354e+09
        20360   2.26353e+09
        20380   2.26353e+09
        20400   2.26352e+09
        20420   2.26352e+09
        20440   2.26351e+09
        20460   2.26351e+09
        20480    2.2635e+09
        20500   2.26349e+09
        20520   2.26349e+09
        20540   2.26348e+09
        20560   2.26348e+09
        20580   2.26347e+09
        20600   2.26347e+09
        20620   2.26346e+09
        20640   2.26345e+09
        20660   2.26345e+09
        20680   2.26344e+09
        20700   2.26344e+09
        20720   2.26343e+09
        20740   2.26343e+09
        20760   2.26342e+09
        20780   2.26341e+09
        20800   2.26341e+09
        20820    2.2634e+09
        20840    2.2634e+09
        20860   2.26339e+09
        20880   2.26338e+09
        20900   2.26338e+09
        20920   2.26337e+09
        20940   2.26337e+09
        20960   2.26336e+09
        20980   2.26335e+09
        21000   2.26335e+09
        21020   2.26334e+09
        21040   2.26334e+09
        21060   2.26333e+09
        21080   2.26332e+09
        21100   2.26332e+09
        21120   2.26331e+09
        21140   2.26331e+09
        21160    2.2633e+09
        21180   2.26329e+09
        21200   2.26329e+09
        21220   2.26328e+09
        21240   2.26327e+09
        21260   2.26327e+09
        21280   2.26326e+09
        21300   2.26326e+09
        21320   2.26325e+09
        21340   2.26324e+09
        21360   2.26324e+09