# Probe 0 (0.05 0.05 0.005)
#       Probe             0
#        Time
           20       15.8137
           40       15.8137
           60       15.8137
           80       15.8137
          100       15.8137
          120       15.8137
          140       15.8137
          160       15.8137
          180       15.8137
          200       15.8137
          220       15.8137
          240       15.8137
          260       15.8137
          280       15.8137
          300       15.8137
          320       15.8137
          340       15.8137
          360       15.8137
          380       15.8137
          400       15.8137
          420       15.8137
          440       15.8137
          460       15.8137
          480       15.8137
          500       15.8137
          520       15.8137
          540       15.8137
          560       15.8137
          580       15.8137
          600       15.8137
          620       15.8137
          640       15.8137
          660       15.8137
          680       15.8137
          700       15.8137
          720       15.8137
          740       15.8137
          760       15.8137
          780       15.8137
          800       15.8137
          820       15.8137
          840       15.8137
          860       15.8137
          880       15.8137
          900       15.8137
          920       15.8137
          940       15.8137
          960       15.8137
          980       15.8137
         1000       15.8137
         1020       15.8137
         1040       15.8137
         1060       15.8137
         1080       15.8137
         1100       15.8137
         1120       15.8137
         1140       15.8137
         1160       15.8137
         1180       15.8137
         1200       15.8137
         1220       15.8137
         1240       15.8137
         1260       15.8137
         1280       15.8137
         1300       15.8137
         1320       15.8137
         1340       15.8137
         1360       15.8137
         1380       15.8137
         1400       15.8137
         1420       15.8137
         1440       15.8137
         1460       15.8137
         1480       15.8137
         1500       15.8137
         1520       15.8137
         1540       15.8137
         1560       15.8137
         1580       15.8137
         1600       15.8137
         1620       15.8137
         1640       15.8137
         1660       15.8137
         1680       15.8137
         1700       15.8137
         1720       15.8137
         1740       15.8137
         1760       15.8137
         1780       15.8137
         1800       15.8137
         1820       15.8137
         1840       15.8137
         1860       15.8137
         1880       15.8137
         1900       15.8137
         1920       15.8137
         1940       15.8137
         1960       15.8137
         1980       15.8137
         2000       15.8137
         2020       15.8137
         2040       15.8137
         2060       15.8137
         2080       15.8137
         2100       15.8137
         2120       15.8137
         2140       15.8137
         2160       15.8137
         2180       15.8137
         2200       15.8137
         2220       15.8137
         2240       15.8137
         2260       15.8137
         2280       15.8137
         2300       15.8137
         2320       15.8137
         2340       15.8137
         2360       15.8137
         2380       15.8137
         2400       15.8137
         2420       15.8137
         2440       15.8137
         2460       15.8137
         2480       15.8137
         2500       15.8137
         2520       15.8137
         2540       15.8137
         2560       15.8137
         2580       15.8137
         2600       15.8137
         2620       15.8137
         2640       15.8137
         2660       15.8137
         2680       15.8137
         2700       15.8137
         2720       15.8137
         2740       15.8137
         2760       15.8137
         2780       15.8137
         2800       15.8137
         2820       15.8137
         2840       15.8137
         2860       15.8137
         2880       15.8137
         2900       15.8137
         2920       15.8137
         2940       15.8137
         2960       15.8137
         2980       15.8137
         3000       15.8137
         3020       15.8137
         3040       15.8137
         3060       15.8137
         3080       15.8137
         3100       15.8137
         3120       15.8137
         3140       15.8137
         3160       15.8137
         3180       15.8137
         3200       15.8137
         3220       15.8137
         3240       15.8137
         3260       15.8137
         3280       15.8137
         3300       15.8137
         3320       15.8137
         3340       15.8137
         3360       15.8137
         3380       15.8137
         3400       15.8137
         3420       15.8137
         3440       15.8137
         3460       15.8137
         3480       15.8137
         3500       15.8137
         3520       15.8137
         3540       15.8137
         3560       15.8137
         3580       15.8137
         3600       15.8137
         3620       15.8137
         3640       15.8137
         3660       15.8137
         3680       15.8137
         3700       15.8137
         3720       15.8137
         3740       15.8137
         3760       15.8137
         3780       15.8137
         3800       15.8137
         3820       15.8137
         3840       15.8137
         3860       15.8137
         3880       15.8137
         3900       15.8137
         3920       15.8137
         3940       15.8137
         3960       15.8137
         3980       15.8137
         4000       15.8137
         4020       15.8137
         4040       15.8137
         4060       15.8137
         4080       15.8137
         4100       15.8137
         4120       15.8136
         4140       15.8136
         4160       15.8136
         4180       15.8136
         4200       15.8136
         4220       15.8136
         4240       15.8136
         4260       15.8136
         4280       15.8136
         4300       15.8136
         4320       15.8136
         4340       15.8136
         4360       15.8136
         4380       15.8136
         4400       15.8136
         4420       15.8136
         4440       15.8136
         4460       15.8136
         4480       15.8136
         4500       15.8136
         4520       15.8136
         4540       15.8136
         4560       15.8136
         4580       15.8136
         4600       15.8136
         4620       15.8136
         4640       15.8136
         4660       15.8136
         4680       15.8136
         4700       15.8136
         4720       15.8136
         4740       15.8136
         4760       15.8136
         4780       15.8136
         4800       15.8136
         4820       15.8136
         4840       15.8136
         4860       15.8136
         4880       15.8136
         4900       15.8136
         4920       15.8136
         4940       15.8136
         4960       15.8136
         4980       15.8136
         5000       15.8136
         5020       15.8136
         5040       15.8136
         5060       15.8136
         5080       15.8136
         5100       15.8136
         5120       15.8136
         5140       15.8136
         5160       15.8136
         5180       15.8136
         5200       15.8136
         5220       15.8136
         5240       15.8136
         5260       15.8136
         5280       15.8136
         5300       15.8136
         5320       15.8136
         5340       15.8136
         5360       15.8136
         5380       15.8136
         5400       15.8136
         5420       15.8136
         5440       15.8136
         5460       15.8136
         5480       15.8136
         5500       15.8136
         5520       15.8136
         5540       15.8135
         5560       15.8135
         5580       15.8135
         5600       15.8135
         5620       15.8135
         5640       15.8135
         5660       15.8135
         5680       15.8135
         5700       15.8135
         5720       15.8135
         5740       15.8135
         5760       15.8135
         5780       15.8135
         5800       15.8135
         5820       15.8135
         5840       15.8135
         5860       15.8135
         5880       15.8135
         5900       15.8135
         5920       15.8135
         5940       15.8135
         5960       15.8135
         5980       15.8135
         6000       15.8135
         6020       15.8135
         6040       15.8135
         6060       15.8135
         6080       15.8135
         6100       15.8135
         6120       15.8135
         6140       15.8135
         6160       15.8135
         6180       15.8135
         6200       15.8135
         6220       15.8135
         6240       15.8135
         6260       15.8135
         6280       15.8135
         6300       15.8135
         6320       15.8135
         6340       15.8134
         6360       15.8134
         6380       15.8134
         6400       15.8134
         6420       15.8134
         6440       15.8134
         6460       15.8134
         6480       15.8134
         6500       15.8134
         6520       15.8134
         6540       15.8134
         6560       15.8134
         6580       15.8134
         6600       15.8134
         6620       15.8134
         6640       15.8134
         6660       15.8134
         6680       15.8134
         6700       15.8134
         6720       15.8134
         6740       15.8134
         6760       15.8134
         6780       15.8134
         6800       15.8134
         6820       15.8134
         6840       15.8134
         6860       15.8134
         6880       15.8134
         6900       15.8133
         6920       15.8133
         6940       15.8133
         6960       15.8133
         6980       15.8133
         7000       15.8133
         7020       15.8133
         7040       15.8133
         7060       15.8133
         7080       15.8133
         7100       15.8133
         7120       15.8133
         7140       15.8133
         7160       15.8133
         7180       15.8133
         7200       15.8133
         7220       15.8133
         7240       15.8133
         7260       15.8133
         7280       15.8133
         7300       15.8133
         7320       15.8133
         7340       15.8133
         7360       15.8132
         7380       15.8132
         7400       15.8132
         7420       15.8132
         7440       15.8132
         7460       15.8132
         7480       15.8132
         7500       15.8132
         7520       15.8132
         7540       15.8132
         7560       15.8132
         7580       15.8132
         7600       15.8132
         7620       15.8132
         7640       15.8132
         7660       15.8132
         7680       15.8132
         7700       15.8132
         7720       15.8132
         7740       15.8131
         7760       15.8131
         7780       15.8131
         7800       15.8131
         7820       15.8131
         7840       15.8131
         7860       15.8131
         7880       15.8131
         7900       15.8131
         7920       15.8131
         7940       15.8131
         7960       15.8131
         7980       15.8131
         8000       15.8131
         8020       15.8131
         8040       15.8131
         8060       15.8131
         8080        15.813
         8100        15.813
         8120        15.813
         8140        15.813
         8160        15.813
         8180        15.813
         8200        15.813
         8220        15.813
         8240        15.813
         8260        15.813
         8280        15.813
         8300        15.813
         8320        15.813
         8340        15.813
         8360       15.8129
         8380       15.8129
         8400       15.8129
         8420       15.8129
         8440       15.8129
         8460       15.8129
         8480       15.8129
         8500       15.8129
         8520       15.8129
         8540       15.8129
         8560       15.8129
         8580       15.8129
         8600       15.8129
         8620       15.8129
         8640       15.8128
         8660       15.8128
         8680       15.8128
         8700       15.8128
         8720       15.8128
         8740       15.8128
         8760       15.8128
         8780       15.8128
         8800       15.8128
         8820       15.8128
         8840       15.8128
         8860       15.8128
         8880       15.8127
         8900       15.8127
         8920       15.8127
         8940       15.8127
         8960       15.8127
         8980       15.8127
         9000       15.8127
         9020       15.8127
         9040       15.8127
         9060       15.8127
         9080       15.8127
         9100       15.8126
         9120       15.8126
         9140       15.8126
         9160       15.8126
         9180       15.8126
         9200       15.8126
         9220       15.8126
         9240       15.8126
         9260       15.8126
         9280       15.8126
         9300       15.8126
         9320       15.8125
         9340       15.8125
         9360       15.8125
         9380       15.8125
         9400       15.8125
         9420       15.8125
         9440       15.8125
         9460       15.8125
         9480       15.8125
         9500       15.8125
         9520       15.8124
         9540       15.8124
         9560       15.8124
         9580       15.8124
         9600       15.8124
         9620       15.8124
         9640       15.8124
         9660       15.8124
         9680       15.8124
         9700       15.8123
         9720       15.8123
         9740       15.8123
         9760       15.8123
         9780       15.8123
         9800       15.8123
         9820       15.8123
         9840       15.8123
         9860       15.8123
         9880       15.8122
         9900       15.8122
         9920       15.8122
         9940       15.8122
         9960       15.8122
         9980       15.8122
        10000       15.8122
        10020       15.8122
        10040       15.8121
        10060       15.8121
        10080       15.8121
        10100       15.8121
        10120       15.8121
        10140       15.8121
        10160       15.8121
        10180       15.8121
        10200        15.812
        10220        15.812
        10240        15.812
        10260        15.812
        10280        15.812
        10300        15.812
        10320        15.812
        10340        15.812
        10360       15.8119
        10380       15.8119
        10400       15.8119
        10420       15.8119
        10440       15.8119
        10460       15.8119
        10480       15.8119
        10500       15.8118
        10520       15.8118
        10540       15.8118
        10560       15.8118
        10580       15.8118
        10600       15.8118
        10620       15.8118
        10640       15.8117
        10660       15.8117
        10680       15.8117
        10700       15.8117
        10720       15.8117
        10740       15.8117
        10760       15.8117
        10780       15.8116
        10800       15.8116
        10820       15.8116
        10840       15.8116
        10860       15.8116
        10880       15.8116
        10900       15.8115
        10920       15.8115
        10940       15.8115
        10960       15.8115
        10980       15.8115
        11000       15.8115
        11020       15.8114
        11040       15.8114
        11060       15.8114
        11080       15.8114
        11100       15.8114
        11120       15.8114
        11140       15.8113
        11160       15.8113
        11180       15.8113
        11200       15.8113
        11220       15.8113
        11240       15.8113
        11260       15.8112
        11280       15.8112
        11300       15.8112
        11320       15.8112
        11340       15.8112
        11360       15.8112
        11380       15.8111
        11400       15.8111
        11420       15.8111
        11440       15.8111
        11460       15.8111
        11480        15.811
        11500        15.811
        11520        15.811
        11540        15.811
        11560        15.811
        11580        15.811
        11600       15.8109
        11620       15.8109
        11640       15.8109
        11660       15.8109
        11680       15.8109
        11700       15.8108
        11720       15.8108
        11740       15.8108
        11760       15.8108
        11780       15.8108
        11800       15.8107
        11820       15.8107
        11840       15.8107
        11860       15.8107
        11880       15.8107
        11900       15.8106
        11920       15.8106
        11940       15.8106
        11960       15.8106
        11980       15.8106
        12000       15.8105
        12020       15.8105
        12040       15.8105
        12060       15.8105
        12080       15.8105
        12100       15.8104
        12120       15.8104
        12140       15.8104
        12160       15.8104
        12180       15.8103
        12200       15.8103
        12220       15.8103
        12240       15.8103
        12260       15.8103
        12280       15.8102
        12300       15.8102
        12320       15.8102
        12340       15.8102
        12360       15.8101
        12380       15.8101
        12400       15.8101
        12420       15.8101
        12440         15.81
        12460         15.81
        12480         15.81
        12500         15.81
        12520         15.81
        12540       15.8099
        12560       15.8099
        12580       15.8099
        12600       15.8099
        12620       15.8098
        12640       15.8098
        12660       15.8098
        12680       15.8098
        12700       15.8097
        12720       15.8097
        12740       15.8097
        12760       15.8097
        12780       15.8096
        12800       15.8096
        12820       15.8096
        12840       15.8096
        12860       15.8095
        12880       15.8095
        12900       15.8095
        12920       15.8095
        12940       15.8094
        12960       15.8094
        12980       15.8094
        13000       15.8093
        13020       15.8093
        13040       15.8093
        13060       15.8093
        13080       15.8092
        13100       15.8092
        13120       15.8092
        13140       15.8092
        13160       15.8091
        13180       15.8091
        13200       15.8091
        13220        15.809
        13240        15.809
        13260        15.809
        13280        15.809
        13300       15.8089
        13320       15.8089
        13340       15.8089
        13360       15.8088
        13380       15.8088
        13400       15.8088
        13420       15.8088
        13440       15.8087
        13460       15.8087
        13480       15.8087
        13500       15.8086
        13520       15.8086
        13540       15.8086
        13560       15.8085
        13580       15.8085
        13600       15.8085
        13620       15.8085
        13640       15.8084
        13660       15.8084
        13680       15.8084
        13700       15.8083
        13720       15.8083
        13740       15.8083
        13760       15.8082
        13780       15.8082
        13800       15.8082
        13820       15.8081
        13840       15.8081
        13860       15.8081
        13880        15.808
        13900        15.808
        13920        15.808
        13940       15.8079
        13960       15.8079
        13980       15.8079
        14000       15.8078
        14020       15.8078
        14040       15.8078
        14060       15.8077
        14080       15.8077
        14100       15.8077
        14120       15.8076
        14140       15.8076
        14160       15.8076
        14180       15.8075
        14200       15.8075
        14220       15.8075
        14240       15.8074
        14260       15.8074
        14280       15.8074
        14300       15.8073
        14320       15.8073
        14340       15.8073
        14360       15.8072
        14380       15.8072
        14400       15.8071
        14420       15.8071
        14440       15.8071
        14460        15.807
        14480        15.807
        14500        15.807
        14520       15.8069
        14540       15.8069
        14560       15.8068
        14580       15.8068
        14600       15.8068
        14620       15.8067
        14640       15.8067
        14660       15.8067
        14680       15.8066
        14700       15.8066
        14720       15.8065
        14740       15.8065
        14760       15.8065
        14780       15.8064
        14800       15.8064
        14820       15.8063
        14840       15.8063
        14860       15.8063
        14880       15.8062
        14900       15.8062
        14920       15.8061
        14940       15.8061
        14960       15.8061
        14980        15.806
        15000        15.806
        15020       15.8059
        15040       15.8059
        15060       15.8059
        15080       15.8058
        15100       15.8058
        15120       15.8057
        15140       15.8057
        15160       15.8056
        15180       15.8056
        15200       15.8056
        15220       15.8055
        15240       15.8055
        15260       15.8054
        15280       15.8054
        15300       15.8053
        15320       15.8053
        15340       15.8053
        15360       15.8052
        15380       15.8052
        15400       15.8051
        15420       15.8051
        15440        15.805
        15460        15.805
        15480       15.8049
        15500       15.8049
        15520       15.8049
        15540       15.8048
        15560       15.8048
        15580       15.8047
        15600       15.8047
        15620       15.8046
        15640       15.8046
        15660       15.8045
        15680       15.8045
        15700       15.8044
        15720       15.8044
        15740       15.8043
        15760       15.8043
        15780       15.8043
        15800       15.8042
        15820       15.8042
        15840       15.8041
        15860       15.8041
        15880        15.804
        15900        15.804
        15920       15.8039
        15940       15.8039
        15960       15.8038
        15980       15.8038
        16000       15.8037
        16020       15.8037
        16040       15.8036
        16060       15.8036
        16080       15.8035
        16100       15.8035
        16120       15.8034
        16140       15.8034
        16160       15.8033
        16180       15.8033
        16200       15.8032
        16220       15.8032
        16240       15.8031
        16260        15.803
        16280        15.803
        16300       15.8029
        16320       15.8029
        16340       15.8028
        16360       15.8028
        16380       15.8027
        16400       15.8027
        16420       15.8026
        16440       15.8026
        16460       15.8025
        16480       15.8025
        16500       15.8024
        16520       15.8024
        16540       15.8023
        16560       15.8022
        16580       15.8022
        16600       15.8021
        16620       15.8021
        16640        15.802
        16660        15.802
        16680       15.8019
        16700       15.8018
        16720       15.8018
        16740       15.8017
        16760       15.8017
        16780       15.8016
        16800       15.8016
        16820       15.8015
        16840       15.8014
        16860       15.8014
        16880       15.8013
        16900       15.8013
        16920       15.8012
        16940       15.8012
        16960       15.8011
        16980        15.801
        17000        15.801
        17020       15.8009
        17040       15.8009
        17060       15.8008
        17080       15.8007
        17100       15.8007
        17120       15.8006
        17140       15.8006
        17160       15.8005
        17180       15.8004
        17200       15.8004
        17220       15.8003
        17240       15.8002
        17260       15.8002
        17280       15.8001
        17300       15.8001
        17320          15.8
        17340       15.7999
        17360       15.7999
        17380       15.7998
        17400       15.7997
        17420       15.7997
        17440       15.7996
        17460       15.7995
        17480       15.7995
        17500       15.7994
        17520       15.7993
        17540       15.7993
        17560       15.7992
        17580       15.7992
        17600       15.7991
        17620        15.799
        17640        15.799
        17660       15.7989
        17680       15.7988
        17700       15.7987
        17720       15.7987
        17740       15.7986
        17760       15.7985
        17780       15.7985
        17800       15.7984
        17820       15.7983
        17840       15.7983
        17860       15.7982
        17880       15.7981
        17900       15.7981
        17920        15.798
        17940       15.7979
        17960       15.7979
        17980       15.7978
        18000       15.7977
        18020       15.7976
        18040       15.7976
        18060       15.7975
        18080       15.7974
        18100       15.7974
        18120       15.7973
        18140       15.7972
        18160       15.7971
        18180       15.7971
        18200        15.797
        18220       15.7969
        18240       15.7968
        18260       15.7968
        18280       15.7967
        18300       15.7966
        18320       15.7965
        18340       15.7965
        18360       15.7964
        18380       15.7963
        18400       15.7962
        18420       15.7962
        18440       15.7961
        18460        15.796
        18480       15.7959
        18500       15.7959
        18520       15.7958
        18540       15.7957
        18560       15.7956
        18580       15.7956
        18600       15.7955
        18620       15.7954
        18640       15.7953
        18660       15.7952
        18680       15.7952
        18700       15.7951
        18720        15.795
        18740       15.7949
        18760       15.7948
        18780       15.7948
        18800       15.7947
        18820       15.7946
        18840       15.7945
        18860       15.7944
        18880       15.7944
        18900       15.7943
        18920       15.7942
        18940       15.7941
        18960        15.794
        18980       15.7939
        19000       15.7939
        19020       15.7938
        19040       15.7937
        19060       15.7936
        19080       15.7935
        19100       15.7934
        19120       15.7933
        19140       15.7933
        19160       15.7932
        19180       15.7931
        19200        15.793
        19220       15.7929
        19240       15.7928
        19260       15.7927
        19280       15.7927
        19300       15.7926
        19320       15.7925
        19340       15.7924
        19360       15.7923
        19380       15.7922
        19400       15.7921
        19420        15.792
        19440        15.792
        19460       15.7919
        19480       15.7918
        19500       15.7917
        19520       15.7916
        19540       15.7915
        19560       15.7914
        19580       15.7913
        19600       15.7912
        19620       15.7911
        19640        15.791
        19660        15.791
        19680       15.7909
        19700       15.7908
        19720       15.7907
        19740       15.7906
        19760       15.7905
        19780       15.7904
        19800       15.7903
        19820       15.7902
        19840       15.7901
        19860         15.79
        19880       15.7899
        19900       15.7898
        19920       15.7897
        19940       15.7896
        19960       15.7895
        19980       15.7894
        20000       15.7893
        20020       15.7892
        20040       15.7891
        20060        15.789
        20080       15.7889
        20100       15.7888
        20120       15.7888
        20140       15.7887
        20160       15.7886
        20180       15.7885
        20200       15.7884
        20220       15.7883
        20240       15.7882
        20260        15.788
        20280       15.7879
        20300       15.7878
        20320       15.7877
        20340       15.7876
        20360       15.7875
        20380       15.7874
        20400       15.7873
        20420       15.7872
        20440       15.7871
        20460        15.787
        20480       15.7869
        20500       15.7868
        20520       15.7867
        20540       15.7866
        20560       15.7865
        20580       15.7864
        20600       15.7863
        20620       15.7862
        20640       15.7861
        20660        15.786
        20680       15.7859
        20700       15.7858
        20720       15.7856
        20740       15.7855
        20760       15.7854
        20780       15.7853
        20800       15.7852
        20820       15.7851
        20840        15.785
        20860       15.7849
        20880       15.7848
        20900       15.7847
        20920       15.7845
        20940       15.7844
        20960       15.7843
        20980       15.7842
        21000       15.7841
        21020        15.784
        21040       15.7839
        21060       15.7838
        21080       15.7836
        21100       15.7835
        21120       15.7834
        21140       15.7833
        21160       15.7832
        21180       15.7831
        21200        15.783
        21220       15.7828
        21240       15.7827
        21260       15.7826
        21280       15.7825
        21300       15.7824
        21320       15.7823
        21340       15.7821
        21360        15.782