# Probe 0 (0.05 0.05 0.005)
#       Probe             0
#        Time
           20   0.000712744
           40   0.000712744
           60   0.000712744
           80   0.000712744
          100   0.000712744
          120   0.000712744
          140   0.000712744
          160   0.000712744
          180   0.000712744
          200   0.000712744
          220   0.000712744
          240   0.000712744
          260   0.000712744
          280   0.000712744
          300   0.000712744
          320   0.000712744
          340   0.000712744
          360   0.000712744
          380   0.000712744
          400   0.000712744
          420   0.000712744
          440   0.000712744
          460   0.000712744
          480   0.000712744
          500   0.000712744
          520   0.000712744
          540   0.000712744
          560   0.000712744
          580   0.000712744
          600   0.000712744
          620   0.000712744
          640   0.000712744
          660   0.000712744
          680   0.000712744
          700   0.000712744
          720   0.000712744
          740   0.000712744
          760   0.000712744
          780   0.000712744
          800   0.000712744
          820   0.000712744
          840   0.000712744
          860   0.000712744
          880   0.000712744
          900   0.000712744
          920   0.000712744
          940   0.000712744
          960   0.000712744
          980   0.000712744
         1000   0.000712744
         1020   0.000712744
         1040   0.000712744
         1060   0.000712744
         1080   0.000712744
         1100   0.000712744
         1120   0.000712744
         1140   0.000712744
         1160   0.000712744
         1180   0.000712744
         1200   0.000712744
         1220   0.000712744
         1240   0.000712744
         1260   0.000712744
         1280   0.000712744
         1300   0.000712744
         1320   0.000712744
         1340   0.000712744
         1360   0.000712744
         1380   0.000712744
         1400   0.000712744
         1420   0.000712744
         1440   0.000712744
         1460   0.000712744
         1480   0.000712744
         1500   0.000712744
         1520   0.000712744
         1540   0.000712744
         1560   0.000712744
         1580   0.000712744
         1600   0.000712744
         1620   0.000712744
         1640   0.000712744
         1660   0.000712744
         1680   0.000712744
         1700   0.000712744
         1720   0.000712743
         1740   0.000712743
         1760   0.000712743
         1780   0.000712743
         1800   0.000712743
         1820   0.000712743
         1840   0.000712743
         1860   0.000712743
         1880   0.000712743
         1900   0.000712743
         1920   0.000712743
         1940   0.000712743
         1960   0.000712743
         1980   0.000712743
         2000   0.000712743
         2020   0.000712743
         2040   0.000712743
         2060   0.000712743
         2080   0.000712743
         2100   0.000712743
         2120   0.000712743
         2140   0.000712743
         2160   0.000712743
         2180   0.000712743
         2200   0.000712743
         2220   0.000712743
         2240   0.000712743
         2260   0.000712743
         2280   0.000712743
         2300   0.000712743
         2320   0.000712743
         2340   0.000712743
         2360   0.000712743
         2380   0.000712743
         2400   0.000712743
         2420   0.000712743
         2440   0.000712743
         2460   0.000712743
         2480   0.000712743
         2500   0.000712743
         2520   0.000712743
         2540   0.000712743
         2560   0.000712743
         2580   0.000712743
         2600   0.000712743
         2620   0.000712743
         2640   0.000712743
         2660   0.000712743
         2680   0.000712743
         2700   0.000712743
         2720   0.000712743
         2740   0.000712743
         2760   0.000712743
         2780   0.000712743
         2800   0.000712743
         2820   0.000712743
         2840   0.000712743
         2860   0.000712743
         2880   0.000712743
         2900   0.000712743
         2920   0.000712743
         2940   0.000712743
         2960   0.000712743
         2980   0.000712743
         3000   0.000712743
         3020   0.000712743
         3040   0.000712743
         3060   0.000712743
         3080   0.000712743
         3100   0.000712743
         3120   0.000712743
         3140   0.000712743
         3160   0.000712743
         3180   0.000712743
         3200   0.000712743
         3220   0.000712743
         3240   0.000712743
         3260   0.000712743
         3280   0.000712743
         3300   0.000712743
         3320   0.000712743
         3340   0.000712743
         3360   0.000712743
         3380   0.000712743
         3400   0.000712743
         3420   0.000712743
         3440   0.000712743
         3460   0.000712743
         3480   0.000712743
         3500   0.000712743
         3520   0.000712743
         3540   0.000712742
         3560   0.000712742
         3580   0.000712742
         3600   0.000712742
         3620   0.000712742
         3640   0.000712742
         3660   0.000712742
         3680   0.000712742
         3700   0.000712742
         3720   0.000712742
         3740   0.000712742
         3760   0.000712742
         3780   0.000712742
         3800   0.000712742
         3820   0.000712742
         3840   0.000712742
         3860   0.000712742
         3880   0.000712742
         3900   0.000712742
         3920   0.000712742
         3940   0.000712742
         3960   0.000712742
         3980   0.000712742
         4000   0.000712742
         4020   0.000712742
         4040   0.000712742
         4060   0.000712742
         4080   0.000712742
         4100   0.000712742
         4120   0.000712742
         4140   0.000712742
         4160   0.000712742
         4180   0.000712741
         4200   0.000712741
         4220   0.000712741
         4240   0.000712741
         4260   0.000712741
         4280   0.000712741
         4300   0.000712741
         4320   0.000712741
         4340   0.000712741
         4360   0.000712741
         4380   0.000712741
         4400   0.000712741
         4420   0.000712741
         4440   0.000712741
         4460   0.000712741
         4480   0.000712741
         4500   0.000712741
         4520   0.000712741
         4540   0.000712741
         4560   0.000712741
         4580   0.000712741
         4600    0.00071274
         4620    0.00071274
         4640    0.00071274
         4660    0.00071274
         4680    0.00071274
         4700    0.00071274
         4720    0.00071274
         4740    0.00071274
         4760    0.00071274
         4780    0.00071274
         4800    0.00071274
         4820    0.00071274
         4840    0.00071274
         4860    0.00071274
         4880    0.00071274
         4900    0.00071274
         4920    0.00071274
         4940   0.000712739
         4960   0.000712739
         4980   0.000712739
         5000   0.000712739
         5020   0.000712739
         5040   0.000712739
         5060   0.000712739
         5080   0.000712739
         5100   0.000712739
         5120   0.000712739
         5140   0.000712739
         5160   0.000712739
         5180   0.000712739
         5200   0.000712739
         5220   0.000712738
         5240   0.000712738
         5260   0.000712738
         5280   0.000712738
         5300   0.000712738
         5320   0.000712738
         5340   0.000712738
         5360   0.000712738
         5380   0.000712738
         5400   0.000712738
         5420   0.000712738
         5440   0.000712738
         5460   0.000712737
         5480   0.000712737
         5500   0.000712737
         5520   0.000712737
         5540   0.000712737
         5560   0.000712737
         5580   0.000712737
         5600   0.000712737
         5620   0.000712737
         5640   0.000712737
         5660   0.000712737
         5680   0.000712736
         5700   0.000712736
         5720   0.000712736
         5740   0.000712736
         5760   0.000712736
         5780   0.000712736
         5800   0.000712736
         5820   0.000712736
         5840   0.000712736
         5860   0.000712735
         5880   0.000712735
         5900   0.000712735
         5920   0.000712735
         5940   0.000712735
         5960   0.000712735
         5980   0.000712735
         6000   0.000712735
         6020   0.000712735
         6040   0.000712734
         6060   0.000712734
         6080   0.000712734
         6100   0.000712734
         6120   0.000712734
         6140   0.000712734
         6160   0.000712734
         6180   0.000712734
         6200   0.000712733
         6220   0.000712733
         6240   0.000712733
         6260   0.000712733
         6280   0.000712733
         6300   0.000712733
         6320   0.000712733
         6340   0.000712732
         6360   0.000712732
         6380   0.000712732
         6400   0.000712732
         6420   0.000712732
         6440   0.000712732
         6460   0.000712732
         6480   0.000712731
         6500   0.000712731
         6520   0.000712731
         6540   0.000712731
         6560   0.000712731
         6580   0.000712731
         6600   0.000712731
         6620    0.00071273
         6640    0.00071273
         6660    0.00071273
         6680    0.00071273
         6700    0.00071273
         6720    0.00071273
         6740   0.000712729
         6760   0.000712729
         6780   0.000712729
         6800   0.000712729
         6820   0.000712729
         6840   0.000712729
         6860   0.000712728
         6880   0.000712728
         6900   0.000712728
         6920   0.000712728
         6940   0.000712728
         6960   0.000712727
         6980   0.000712727
         7000   0.000712727
         7020   0.000712727
         7040   0.000712727
         7060   0.000712727
         7080   0.000712726
         7100   0.000712726
         7120   0.000712726
         7140   0.000712726
         7160   0.000712726
         7180   0.000712725
         7200   0.000712725
         7220   0.000712725
         7240   0.000712725
         7260   0.000712725
         7280   0.000712724
         7300   0.000712724
         7320   0.000712724
         7340   0.000712724
         7360   0.000712723
         7380   0.000712723
         7400   0.000712723
         7420   0.000712723
         7440   0.000712723
         7460   0.000712722
         7480   0.000712722
         7500   0.000712722
         7520   0.000712722
         7540   0.000712721
         7560   0.000712721
         7580   0.000712721
         7600   0.000712721
         7620    0.00071272
         7640    0.00071272
         7660    0.00071272
         7680    0.00071272
         7700   0.000712719
         7720   0.000712719
         7740   0.000712719
         7760   0.000712719
         7780   0.000712718
         7800   0.000712718
         7820   0.000712718
         7840   0.000712718
         7860   0.000712717
         7880   0.000712717
         7900   0.000712717
         7920   0.000712717
         7940   0.000712716
         7960   0.000712716
         7980   0.000712716
         8000   0.000712715
         8020   0.000712715
         8040   0.000712715
         8060   0.000712715
         8080   0.000712714
         8100   0.000712714
         8120   0.000712714
         8140   0.000712713
         8160   0.000712713
         8180   0.000712713
         8200   0.000712713
         8220   0.000712712
         8240   0.000712712
         8260   0.000712712
         8280   0.000712711
         8300   0.000712711
         8320   0.000712711
         8340    0.00071271
         8360    0.00071271
         8380    0.00071271
         8400   0.000712709
         8420   0.000712709
         8440   0.000712709
         8460   0.000712708
         8480   0.000712708
         8500   0.000712708
         8520   0.000712707
         8540   0.000712707
         8560   0.000712707
         8580   0.000712706
         8600   0.000712706
         8620   0.000712706
         8640   0.000712705
         8660   0.000712705
         8680   0.000712705
         8700   0.000712704
         8720   0.000712704
         8740   0.000712704
         8760   0.000712703
         8780   0.000712703
         8800   0.000712702
         8820   0.000712702
         8840   0.000712702
         8860   0.000712701
         8880   0.000712701
         8900   0.000712701
         8920     0.0007127
         8940     0.0007127
         8960   0.000712699
         8980   0.000712699
         9000   0.000712699
         9020   0.000712698
         9040   0.000712698
         9060   0.000712697
         9080   0.000712697
         9100   0.000712697
         9120   0.000712696
         9140   0.000712696
         9160   0.000712695
         9180   0.000712695
         9200   0.000712694
         9220   0.000712694
         9240   0.000712694
         9260   0.000712693
         9280   0.000712693
         9300   0.000712692
         9320   0.000712692
         9340   0.000712691
         9360   0.000712691
         9380    0.00071269
         9400    0.00071269
         9420    0.00071269
         9440   0.000712689
         9460   0.000712689
         9480   0.000712688
         9500   0.000712688
         9520   0.000712687
         9540   0.000712687
         9560   0.000712686
         9580   0.000712686
         9600   0.000712685
         9620   0.000712685
         9640   0.000712684
         9660   0.000712684
         9680   0.000712683
         9700   0.000712683
         9720   0.000712682
         9740   0.000712682
         9760   0.000712681
         9780   0.000712681
         9800    0.00071268
         9820    0.00071268
         9840   0.000712679
         9860   0.000712679
         9880   0.000712678
         9900   0.000712678
         9920   0.000712677
         9940   0.000712677
         9960   0.000712676
         9980   0.000712676
        10000   0.000712675
        10020   0.000712674
        10040   0.000712674
        10060   0.000712673
        10080   0.000712673
        10100   0.000712672
        10120   0.000712672
        10140   0.000712671
        10160    0.00071267
        10180    0.00071267
        10200   0.000712669
        10220   0.000712669
        10240   0.000712668
        10260   0.000712668
        10280   0.000712667
        10300   0.000712666
        10320   0.000712666
        10340   0.000712665
        10360   0.000712665
        10380   0.000712664
        10400   0.000712663
        10420   0.000712663
        10440   0.000712662
        10460   0.000712661
        10480   0.000712661
        10500    0.00071266
        10520    0.00071266
        10540   0.000712659
        10560   0.000712658
        10580   0.000712658
        10600   0.000712657
        10620   0.000712656
        10640   0.000712656
        10660   0.000712655
        10680   0.000712654
        10700   0.000712654
        10720   0.000712653
        10740   0.000712652
        10760   0.000712652
        10780   0.000712651
        10800    0.00071265
        10820    0.00071265
        10840   0.000712649
        10860   0.000712648
        10880   0.000712647
        10900   0.000712647
        10920   0.000712646
        10940   0.000712645
        10960   0.000712645
        10980   0.000712644
        11000   0.000712643
        11020   0.000712642
        11040   0.000712642
        11060   0.000712641
        11080    0.00071264
        11100   0.000712639
        11120   0.000712639
        11140   0.000712638
        11160   0.000712637
        11180   0.000712636
        11200   0.000712636
        11220   0.000712635
        11240   0.000712634
        11260   0.000712633
        11280   0.000712632
        11300   0.000712632
        11320   0.000712631
        11340    0.00071263
        11360   0.000712629
        11380   0.000712628
        11400   0.000712628
        11420   0.000712627
        11440   0.000712626
        11460   0.000712625
        11480   0.000712624
        11500   0.000712624
        11520   0.000712623
        11540   0.000712622
        11560   0.000712621
        11580    0.00071262
        11600   0.000712619
        11620   0.000712618
        11640   0.000712618
        11660   0.000712617
        11680   0.000712616
        11700   0.000712615
        11720   0.000712614
        11740   0.000712613
        11760   0.000712612
        11780   0.000712611
        11800   0.000712611
        11820    0.00071261
        11840   0.000712609
        11860   0.000712608
        11880   0.000712607
        11900   0.000712606
        11920   0.000712605
        11940   0.000712604
        11960   0.000712603
        11980   0.000712602
        12000   0.000712601
        12020     0.0007126
        12040   0.000712599
        12060   0.000712598
        12080   0.000712597
        12100   0.000712596
        12120   0.000712595
        12140   0.000712595
        12160   0.000712594
        12180   0.000712593
        12200   0.000712592
        12220   0.000712591
        12240    0.00071259
        12260   0.000712589
        12280   0.000712588
        12300   0.000712586
        12320   0.000712585
        12340   0.000712584
        12360   0.000712583
        12380   0.000712582
        12400   0.000712581
        12420    0.00071258
        12440   0.000712579
        12460   0.000712578
        12480   0.000712577
        12500   0.000712576
        12520   0.000712575
        12540   0.000712574
        12560   0.000712573
        12580   0.000712572
        12600   0.000712571
        12620   0.000712569
        12640   0.000712568
        12660   0.000712567
        12680   0.000712566
        12700   0.000712565
        12720   0.000712564
        12740   0.000712563
        12760   0.000712562
        12780    0.00071256
        12800   0.000712559
        12820   0.000712558
        12840   0.000712557
        12860   0.000712556
        12880   0.000712555
        12900   0.000712554
        12920   0.000712552
        12940   0.000712551
        12960    0.00071255
        12980   0.000712549
        13000   0.000712548
        13020   0.000712546
        13040   0.000712545
        13060   0.000712544
        13080   0.000712543
        13100   0.000712541
        13120    0.00071254
        13140   0.000712539
        13160   0.000712538
        13180   0.000712536
        13200   0.000712535
        13220   0.000712534
        13240   0.000712533
        13260   0.000712531
        13280    0.00071253
        13300   0.000712529
        13320   0.000712528
        13340   0.000712526
        13360   0.000712525
        13380   0.000712524
        13400   0.000712522
        13420   0.000712521
        13440    0.00071252
        13460   0.000712518
        13480   0.000712517
        13500   0.000712516
        13520   0.000712514
        13540   0.000712513
        13560   0.000712512
        13580    0.00071251
        13600   0.000712509
        13620   0.000712507
        13640   0.000712506
        13660   0.000712505
        13680   0.000712503
        13700   0.000712502
        13720     0.0007125
        13740   0.000712499
        13760   0.000712498
        13780   0.000712496
        13800   0.000712495
        13820   0.000712493
        13840   0.000712492
        13860    0.00071249
        13880   0.000712489
        13900   0.000712487
        13920   0.000712486
        13940   0.000712484
        13960   0.000712483
        13980   0.000712481
        14000    0.00071248
        14020   0.000712478
        14040   0.000712477
        14060   0.000712475
        14080   0.000712474
        14100   0.000712472
        14120   0.000712471
        14140   0.000712469
        14160   0.000712468
        14180   0.000712466
        14200   0.000712465
        14220   0.000712463
        14240   0.000712461
        14260    0.00071246
        14280   0.000712458
        14300   0.000712457
        14320   0.000712455
        14340   0.000712453
        14360   0.000712452
        14380    0.00071245
        14400   0.000712448
        14420   0.000712447
        14440   0.000712445
        14460   0.000712444
        14480   0.000712442
        14500    0.00071244
        14520   0.000712438
        14540   0.000712437
        14560   0.000712435
        14580   0.000712433
        14600   0.000712432
        14620    0.00071243
        14640   0.000712428
        14660   0.000712427
        14680   0.000712425
        14700   0.000712423
        14720   0.000712421
        14740    0.00071242
        14760   0.000712418
        14780   0.000712416
        14800   0.000712414
        14820   0.000712412
        14840   0.000712411
        14860   0.000712409
        14880   0.000712407
        14900   0.000712405
        14920   0.000712403
        14940   0.000712402
        14960     0.0007124
        14980   0.000712398
        15000   0.000712396
        15020   0.000712394
        15040   0.000712392
        15060   0.000712391
        15080   0.000712389
        15100   0.000712387
        15120   0.000712385
        15140   0.000712383
        15160   0.000712381
        15180   0.000712379
        15200   0.000712377
        15220   0.000712375
        15240   0.000712373
        15260   0.000712371
        15280   0.000712369
        15300   0.000712367
        15320   0.000712366
        15340   0.000712364
        15360   0.000712362
        15380    0.00071236
        15400   0.000712358
        15420   0.000712356
        15440   0.000712354
        15460   0.000712351
        15480   0.000712349
        15500   0.000712347
        15520   0.000712345
        15540   0.000712343
        15560   0.000712341
        15580   0.000712339
        15600   0.000712337
        15620   0.000712335
        15640   0.000712333
        15660   0.000712331
        15680   0.000712329
        15700   0.000712327
        15720   0.000712324
        15740   0.000712322
        15760    0.00071232
        15780   0.000712318
        15800   0.000712316
        15820   0.000712314
        15840   0.000712312
        15860   0.000712309
        15880   0.000712307
        15900   0.000712305
        15920   0.000712303
        15940     0.0007123
        15960   0.000712298
        15980   0.000712296
        16000   0.000712294
        16020   0.000712292
        16040   0.000712289
        16060   0.000712287
        16080   0.000712285
        16100   0.000712282
        16120    0.00071228
        16140   0.000712278
        16160   0.000712276
        16180   0.000712273
        16200   0.000712271
        16220   0.000712269
        16240   0.000712266
        16260   0.000712264
        16280   0.000712261
        16300   0.000712259
        16320   0.000712257
        16340   0.000712254
        16360   0.000712252
        16380    0.00071225
        16400   0.000712247
        16420   0.000712245
        16440   0.000712242
        16460    0.00071224
        16480   0.000712237
        16500   0.000712235
        16520   0.000712232
        16540    0.00071223
        16560   0.000712227
        16580   0.000712225
        16600   0.000712222
        16620    0.00071222
        16640   0.000712217
        16660   0.000712215
        16680   0.000712212
        16700    0.00071221
        16720   0.000712207
        16740   0.000712205
        16760   0.000712202
        16780   0.000712199
        16800   0.000712197
        16820   0.000712194
        16840   0.000712192
        16860   0.000712189
        16880   0.000712186
        16900   0.000712184
        16920   0.000712181
        16940   0.000712178
        16960   0.000712176
        16980   0.000712173
        17000    0.00071217
        17020   0.000712168
        17040   0.000712165
        17060   0.000712162
        17080    0.00071216
        17100   0.000712157
        17120   0.000712154
        17140   0.000712151
        17160   0.000712149
        17180   0.000712146
        17200   0.000712143
        17220    0.00071214
        17240   0.000712137
        17260   0.000712135
        17280   0.000712132
        17300   0.000712129
        17320   0.000712126
        17340   0.000712123
        17360    0.00071212
        17380   0.000712117
        17400   0.000712115
        17420   0.000712112
        17440   0.000712109
        17460   0.000712106
        17480   0.000712103
        17500     0.0007121
        17520   0.000712097
        17540   0.000712094
        17560   0.000712091
        17580   0.000712088
        17600   0.000712085
        17620   0.000712082
        17640   0.000712079
        17660   0.000712076
        17680   0.000712073
        17700    0.00071207
        17720   0.000712067
        17740   0.000712064
        17760   0.000712061
        17780   0.000712058
        17800   0.000712055
        17820   0.000712052
        17840   0.000712048
        17860   0.000712045
        17880   0.000712042
        17900   0.000712039
        17920   0.000712036
        17940   0.000712033
        17960    0.00071203
        17980   0.000712026
        18000   0.000712023
        18020    0.00071202
        18040   0.000712017
        18060   0.000712014
        18080    0.00071201
        18100   0.000712007
        18120   0.000712004
        18140   0.000712001
        18160   0.000711997
        18180   0.000711994
        18200   0.000711991
        18220   0.000711987
        18240   0.000711984
        18260   0.000711981
        18280   0.000711977
        18300   0.000711974
        18320   0.000711971
        18340   0.000711967
        18360   0.000711964
        18380    0.00071196
        18400   0.000711957
        18420   0.000711954
        18440    0.00071195
        18460   0.000711947
        18480   0.000711943
        18500    0.00071194
        18520   0.000711936
        18540   0.000711933
        18560   0.000711929
        18580   0.000711926
        18600   0.000711922
        18620   0.000711919
        18640   0.000711915
        18660   0.000711912
        18680   0.000711908
        18700   0.000711905
        18720   0.000711901
        18740   0.000711897
        18760   0.000711894
        18780    0.00071189
        18800   0.000711886
        18820   0.000711883
        18840   0.000711879
        18860   0.000711875
        18880   0.000711872
        18900   0.000711868
        18920   0.000711864
        18940   0.000711861
        18960   0.000711857
        18980   0.000711853
        19000   0.000711849
        19020   0.000711846
        19040   0.000711842
        19060   0.000711838
        19080   0.000711834
        19100    0.00071183
        19120   0.000711827
        19140   0.000711823
        19160   0.000711819
        19180   0.000711815
        19200   0.000711811
        19220   0.000711807
        19240   0.000711803
        19260   0.000711799
        19280   0.000711796
        19300   0.000711792
        19320   0.000711788
        19340   0.000711784
        19360    0.00071178
        19380   0.000711776
        19400   0.000711772
        19420   0.000711768
        19440   0.000711764
        19460    0.00071176
        19480   0.000711756
        19500   0.000711752
        19520   0.000711747
        19540   0.000711743
        19560   0.000711739
        19580   0.000711735
        19600   0.000711731
        19620   0.000711727
        19640   0.000711723
        19660   0.000711719
        19680   0.000711714
        19700    0.00071171
        19720   0.000711706
        19740   0.000711702
        19760   0.000711698
        19780   0.000711693
        19800   0.000711689
        19820   0.000711685
        19840   0.000711681
        19860   0.000711676
        19880   0.000711672
        19900   0.000711668
        19920   0.000711663
        19940   0.000711659
        19960   0.000711655
        19980    0.00071165
        20000   0.000711646
        20020   0.000711642
        20040   0.000711637
        20060   0.000711633
        20080   0.000711628
        20100   0.000711624
        20120   0.000711619
        20140   0.000711615
        20160    0.00071161
        20180   0.000711606
        20200   0.000711601
        20220   0.000711597
        20240   0.000711592
        20260   0.000711588
        20280   0.000711583
        20300   0.000711579
        20320   0.000711574
        20340   0.000711569
        20360   0.000711565
        20380    0.00071156
        20400   0.000711556
        20420   0.000711551
        20440   0.000711546
        20460   0.000711542
        20480   0.000711537
        20500   0.000711532
        20520   0.000711527
        20540   0.000711523
        20560   0.000711518
        20580   0.000711513
        20600   0.000711508
        20620   0.000711504
        20640   0.000711499
        20660   0.000711494
        20680   0.000711489
        20700   0.000711484
        20720   0.000711479
        20740   0.000711474
        20760    0.00071147
        20780   0.000711465
        20800    0.00071146
        20820   0.000711455
        20840    0.00071145
        20860   0.000711445
        20880    0.00071144
        20900   0.000711435
        20920    0.00071143
        20940   0.000711425
        20960    0.00071142
        20980   0.000711415
        21000    0.00071141
        21020   0.000711405
        21040   0.000711399
        21060   0.000711394
        21080   0.000711389
        21100   0.000711384
        21120   0.000711379
        21140   0.000711374
        21160   0.000711369
        21180   0.000711363
        21200   0.000711358
        21220   0.000711353
        21240   0.000711348
        21260   0.000711342
        21280   0.000711337
        21300   0.000711332
        21320   0.000711327
        21340   0.000711321
        21360   0.000711316