# Probe 0 (0.05 0.05 0.005)
#       Probe             0
#        Time
           20       16.8137
           40       16.8137
           60       16.8137
           80       16.8137
          100       16.8137
          120       16.8137
          140       16.8137
          160       16.8137
          180       16.8137
          200       16.8137
          220       16.8137
          240       16.8137
          260       16.8137
          280       16.8137
          300       16.8137
          320       16.8137
          340       16.8137
          360       16.8137
          380       16.8137
          400       16.8137
          420       16.8137
          440       16.8137
          460       16.8137
          480       16.8137
          500       16.8137
          520       16.8137
          540       16.8137
          560       16.8137
          580       16.8137
          600       16.8137
          620       16.8137
          640       16.8137
          660       16.8137
          680       16.8137
          700       16.8137
          720       16.8137
          740       16.8137
          760       16.8137
          780       16.8137
          800       16.8137
          820       16.8137
          840       16.8137
          860       16.8137
          880       16.8137
          900       16.8137
          920       16.8137
          940       16.8137
          960       16.8137
          980       16.8137
         1000       16.8137
         1020       16.8137
         1040       16.8137
         1060       16.8137
         1080       16.8137
         1100       16.8137
         1120       16.8137
         1140       16.8137
         1160       16.8137
         1180       16.8137
         1200       16.8137
         1220       16.8137
         1240       16.8137
         1260       16.8137
         1280       16.8137
         1300       16.8137
         1320       16.8137
         1340       16.8137
         1360       16.8137
         1380       16.8137
         1400       16.8137
         1420       16.8137
         1440       16.8137
         1460       16.8137
         1480       16.8137
         1500       16.8137
         1520       16.8137
         1540       16.8137
         1560       16.8137
         1580       16.8137
         1600       16.8137
         1620       16.8137
         1640       16.8137
         1660       16.8137
         1680       16.8137
         1700       16.8137
         1720       16.8137
         1740       16.8137
         1760       16.8137
         1780       16.8137
         1800       16.8137
         1820       16.8137
         1840       16.8137
         1860       16.8137
         1880       16.8137
         1900       16.8137
         1920       16.8137
         1940       16.8137
         1960       16.8137
         1980       16.8137
         2000       16.8137
         2020       16.8137
         2040       16.8137
         2060       16.8137
         2080       16.8137
         2100       16.8137
         2120       16.8137
         2140       16.8137
         2160       16.8137
         2180       16.8137
         2200       16.8137
         2220       16.8137
         2240       16.8137
         2260       16.8137
         2280       16.8137
         2300       16.8137
         2320       16.8137
         2340       16.8137
         2360       16.8137
         2380       16.8137
         2400       16.8137
         2420       16.8137
         2440       16.8137
         2460       16.8137
         2480       16.8137
         2500       16.8137
         2520       16.8137
         2540       16.8137
         2560       16.8137
         2580       16.8137
         2600       16.8137
         2620       16.8137
         2640       16.8137
         2660       16.8137
         2680       16.8137
         2700       16.8137
         2720       16.8137
         2740       16.8137
         2760       16.8137
         2780       16.8137
         2800       16.8137
         2820       16.8137
         2840       16.8137
         2860       16.8137
         2880       16.8137
         2900       16.8137
         2920       16.8137
         2940       16.8137
         2960       16.8137
         2980       16.8137
         3000       16.8137
         3020       16.8137
         3040       16.8137
         3060       16.8137
         3080       16.8137
         3100       16.8137
         3120       16.8137
         3140       16.8137
         3160       16.8137
         3180       16.8137
         3200       16.8137
         3220       16.8137
         3240       16.8137
         3260       16.8137
         3280       16.8137
         3300       16.8137
         3320       16.8137
         3340       16.8137
         3360       16.8137
         3380       16.8137
         3400       16.8137
         3420       16.8137
         3440       16.8137
         3460       16.8137
         3480       16.8137
         3500       16.8137
         3520       16.8137
         3540       16.8137
         3560       16.8137
         3580       16.8137
         3600       16.8137
         3620       16.8137
         3640       16.8137
         3660       16.8137
         3680       16.8137
         3700       16.8137
         3720       16.8137
         3740       16.8137
         3760       16.8137
         3780       16.8137
         3800       16.8137
         3820       16.8137
         3840       16.8137
         3860       16.8137
         3880       16.8137
         3900       16.8137
         3920       16.8137
         3940       16.8137
         3960       16.8137
         3980       16.8137
         4000       16.8137
         4020       16.8137
         4040       16.8137
         4060       16.8137
         4080       16.8137
         4100       16.8137
         4120       16.8136
         4140       16.8136
         4160       16.8136
         4180       16.8136
         4200       16.8136
         4220       16.8136
         4240       16.8136
         4260       16.8136
         4280       16.8136
         4300       16.8136
         4320       16.8136
         4340       16.8136
         4360       16.8136
         4380       16.8136
         4400       16.8136
         4420       16.8136
         4440       16.8136
         4460       16.8136
         4480       16.8136
         4500       16.8136
         4520       16.8136
         4540       16.8136
         4560       16.8136
         4580       16.8136
         4600       16.8136
         4620       16.8136
         4640       16.8136
         4660       16.8136
         4680       16.8136
         4700       16.8136
         4720       16.8136
         4740       16.8136
         4760       16.8136
         4780       16.8136
         4800       16.8136
         4820       16.8136
         4840       16.8136
         4860       16.8136
         4880       16.8136
         4900       16.8136
         4920       16.8136
         4940       16.8136
         4960       16.8136
         4980       16.8136
         5000       16.8136
         5020       16.8136
         5040       16.8136
         5060       16.8136
         5080       16.8136
         5100       16.8136
         5120       16.8136
         5140       16.8136
         5160       16.8136
         5180       16.8136
         5200       16.8136
         5220       16.8136
         5240       16.8136
         5260       16.8136
         5280       16.8136
         5300       16.8136
         5320       16.8136
         5340       16.8136
         5360       16.8136
         5380       16.8136
         5400       16.8136
         5420       16.8136
         5440       16.8136
         5460       16.8136
         5480       16.8136
         5500       16.8136
         5520       16.8136
         5540       16.8135
         5560       16.8135
         5580       16.8135
         5600       16.8135
         5620       16.8135
         5640       16.8135
         5660       16.8135
         5680       16.8135
         5700       16.8135
         5720       16.8135
         5740       16.8135
         5760       16.8135
         5780       16.8135
         5800       16.8135
         5820       16.8135
         5840       16.8135
         5860       16.8135
         5880       16.8135
         5900       16.8135
         5920       16.8135
         5940       16.8135
         5960       16.8135
         5980       16.8135
         6000       16.8135
         6020       16.8135
         6040       16.8135
         6060       16.8135
         6080       16.8135
         6100       16.8135
         6120       16.8135
         6140       16.8135
         6160       16.8135
         6180       16.8135
         6200       16.8135
         6220       16.8135
         6240       16.8135
         6260       16.8135
         6280       16.8135
         6300       16.8135
         6320       16.8135
         6340       16.8134
         6360       16.8134
         6380       16.8134
         6400       16.8134
         6420       16.8134
         6440       16.8134
         6460       16.8134
         6480       16.8134
         6500       16.8134
         6520       16.8134
         6540       16.8134
         6560       16.8134
         6580       16.8134
         6600       16.8134
         6620       16.8134
         6640       16.8134
         6660       16.8134
         6680       16.8134
         6700       16.8134
         6720       16.8134
         6740       16.8134
         6760       16.8134
         6780       16.8134
         6800       16.8134
         6820       16.8134
         6840       16.8134
         6860       16.8134
         6880       16.8134
         6900       16.8133
         6920       16.8133
         6940       16.8133
         6960       16.8133
         6980       16.8133
         7000       16.8133
         7020       16.8133
         7040       16.8133
         7060       16.8133
         7080       16.8133
         7100       16.8133
         7120       16.8133
         7140       16.8133
         7160       16.8133
         7180       16.8133
         7200       16.8133
         7220       16.8133
         7240       16.8133
         7260       16.8133
         7280       16.8133
         7300       16.8133
         7320       16.8133
         7340       16.8133
         7360       16.8132
         7380       16.8132
         7400       16.8132
         7420       16.8132
         7440       16.8132
         7460       16.8132
         7480       16.8132
         7500       16.8132
         7520       16.8132
         7540       16.8132
         7560       16.8132
         7580       16.8132
         7600       16.8132
         7620       16.8132
         7640       16.8132
         7660       16.8132
         7680       16.8132
         7700       16.8132
         7720       16.8132
         7740       16.8131
         7760       16.8131
         7780       16.8131
         7800       16.8131
         7820       16.8131
         7840       16.8131
         7860       16.8131
         7880       16.8131
         7900       16.8131
         7920       16.8131
         7940       16.8131
         7960       16.8131
         7980       16.8131
         8000       16.8131
         8020       16.8131
         8040       16.8131
         8060       16.8131
         8080        16.813
         8100        16.813
         8120        16.813
         8140        16.813
         8160        16.813
         8180        16.813
         8200        16.813
         8220        16.813
         8240        16.813
         8260        16.813
         8280        16.813
         8300        16.813
         8320        16.813
         8340        16.813
         8360       16.8129
         8380       16.8129
         8400       16.8129
         8420       16.8129
         8440       16.8129
         8460       16.8129
         8480       16.8129
         8500       16.8129
         8520       16.8129
         8540       16.8129
         8560       16.8129
         8580       16.8129
         8600       16.8129
         8620       16.8129
         8640       16.8128
         8660       16.8128
         8680       16.8128
         8700       16.8128
         8720       16.8128
         8740       16.8128
         8760       16.8128
         8780       16.8128
         8800       16.8128
         8820       16.8128
         8840       16.8128
         8860       16.8128
         8880       16.8127
         8900       16.8127
         8920       16.8127
         8940       16.8127
         8960       16.8127
         8980       16.8127
         9000       16.8127
         9020       16.8127
         9040       16.8127
         9060       16.8127
         9080       16.8127
         9100       16.8126
         9120       16.8126
         9140       16.8126
         9160       16.8126
         9180       16.8126
         9200       16.8126
         9220       16.8126
         9240       16.8126
         9260       16.8126
         9280       16.8126
         9300       16.8126
         9320       16.8125
         9340       16.8125
         9360       16.8125
         9380       16.8125
         9400       16.8125
         9420       16.8125
         9440       16.8125
         9460       16.8125
         9480       16.8125
         9500       16.8125
         9520       16.8124
         9540       16.8124
         9560       16.8124
         9580       16.8124
         9600       16.8124
         9620       16.8124
         9640       16.8124
         9660       16.8124
         9680       16.8124
         9700       16.8123
         9720       16.8123
         9740       16.8123
         9760       16.8123
         9780       16.8123
         9800       16.8123
         9820       16.8123
         9840       16.8123
         9860       16.8123
         9880       16.8122
         9900       16.8122
         9920       16.8122
         9940       16.8122
         9960       16.8122
         9980       16.8122
        10000       16.8122
        10020       16.8122
        10040       16.8121
        10060       16.8121
        10080       16.8121
        10100       16.8121
        10120       16.8121
        10140       16.8121
        10160       16.8121
        10180       16.8121
        10200        16.812
        10220        16.812
        10240        16.812
        10260        16.812
        10280        16.812
        10300        16.812
        10320        16.812
        10340        16.812
        10360       16.8119
        10380       16.8119
        10400       16.8119
        10420       16.8119
        10440       16.8119
        10460       16.8119
        10480       16.8119
        10500       16.8118
        10520       16.8118
        10540       16.8118
        10560       16.8118
        10580       16.8118
        10600       16.8118
        10620       16.8118
        10640       16.8117
        10660       16.8117
        10680       16.8117
        10700       16.8117
        10720       16.8117
        10740       16.8117
        10760       16.8117
        10780       16.8116
        10800       16.8116
        10820       16.8116
        10840       16.8116
        10860       16.8116
        10880       16.8116
        10900       16.8115
        10920       16.8115
        10940       16.8115
        10960       16.8115
        10980       16.8115
        11000       16.8115
        11020       16.8114
        11040       16.8114
        11060       16.8114
        11080       16.8114
        11100       16.8114
        11120       16.8114
        11140       16.8113
        11160       16.8113
        11180       16.8113
        11200       16.8113
        11220       16.8113
        11240       16.8113
        11260       16.8112
        11280       16.8112
        11300       16.8112
        11320       16.8112
        11340       16.8112
        11360       16.8112
        11380       16.8111
        11400       16.8111
        11420       16.8111
        11440       16.8111
        11460       16.8111
        11480        16.811
        11500        16.811
        11520        16.811
        11540        16.811
        11560        16.811
        11580        16.811
        11600       16.8109
        11620       16.8109
        11640       16.8109
        11660       16.8109
        11680       16.8109
        11700       16.8108
        11720       16.8108
        11740       16.8108
        11760       16.8108
        11780       16.8108
        11800       16.8107
        11820       16.8107
        11840       16.8107
        11860       16.8107
        11880       16.8107
        11900       16.8106
        11920       16.8106
        11940       16.8106
        11960       16.8106
        11980       16.8106
        12000       16.8105
        12020       16.8105
        12040       16.8105
        12060       16.8105
        12080       16.8105
        12100       16.8104
        12120       16.8104
        12140       16.8104
        12160       16.8104
        12180       16.8103
        12200       16.8103
        12220       16.8103
        12240       16.8103
        12260       16.8103
        12280       16.8102
        12300       16.8102
        12320       16.8102
        12340       16.8102
        12360       16.8101
        12380       16.8101
        12400       16.8101
        12420       16.8101
        12440         16.81
        12460         16.81
        12480         16.81
        12500         16.81
        12520         16.81
        12540       16.8099
        12560       16.8099
        12580       16.8099
        12600       16.8099
        12620       16.8098
        12640       16.8098
        12660       16.8098
        12680       16.8098
        12700       16.8097
        12720       16.8097
        12740       16.8097
        12760       16.8097
        12780       16.8096
        12800       16.8096
        12820       16.8096
        12840       16.8096
        12860       16.8095
        12880       16.8095
        12900       16.8095
        12920       16.8095
        12940       16.8094
        12960       16.8094
        12980       16.8094
        13000       16.8093
        13020       16.8093
        13040       16.8093
        13060       16.8093
        13080       16.8092
        13100       16.8092
        13120       16.8092
        13140       16.8092
        13160       16.8091
        13180       16.8091
        13200       16.8091
        13220        16.809
        13240        16.809
        13260        16.809
        13280        16.809
        13300       16.8089
        13320       16.8089
        13340       16.8089
        13360       16.8088
        13380       16.8088
        13400       16.8088
        13420       16.8088
        13440       16.8087
        13460       16.8087
        13480       16.8087
        13500       16.8086
        13520       16.8086
        13540       16.8086
        13560       16.8085
        13580       16.8085
        13600       16.8085
        13620       16.8085
        13640       16.8084
        13660       16.8084
        13680       16.8084
        13700       16.8083
        13720       16.8083
        13740       16.8083
        13760       16.8082
        13780       16.8082
        13800       16.8082
        13820       16.8081
        13840       16.8081
        13860       16.8081
        13880        16.808
        13900        16.808
        13920        16.808
        13940       16.8079
        13960       16.8079
        13980       16.8079
        14000       16.8078
        14020       16.8078
        14040       16.8078
        14060       16.8077
        14080       16.8077
        14100       16.8077
        14120       16.8076
        14140       16.8076
        14160       16.8076
        14180       16.8075
        14200       16.8075
        14220       16.8075
        14240       16.8074
        14260       16.8074
        14280       16.8074
        14300       16.8073
        14320       16.8073
        14340       16.8073
        14360       16.8072
        14380       16.8072
        14400       16.8071
        14420       16.8071
        14440       16.8071
        14460        16.807
        14480        16.807
        14500        16.807
        14520       16.8069
        14540       16.8069
        14560       16.8068
        14580       16.8068
        14600       16.8068
        14620       16.8067
        14640       16.8067
        14660       16.8067
        14680       16.8066
        14700       16.8066
        14720       16.8065
        14740       16.8065
        14760       16.8065
        14780       16.8064
        14800       16.8064
        14820       16.8063
        14840       16.8063
        14860       16.8063
        14880       16.8062
        14900       16.8062
        14920       16.8061
        14940       16.8061
        14960       16.8061
        14980        16.806
        15000        16.806
        15020       16.8059
        15040       16.8059
        15060       16.8059
        15080       16.8058
        15100       16.8058
        15120       16.8057
        15140       16.8057
        15160       16.8056
        15180       16.8056
        15200       16.8056
        15220       16.8055
        15240       16.8055
        15260       16.8054
        15280       16.8054
        15300       16.8053
        15320       16.8053
        15340       16.8053
        15360       16.8052
        15380       16.8052
        15400       16.8051
        15420       16.8051
        15440        16.805
        15460        16.805
        15480       16.8049
        15500       16.8049
        15520       16.8049
        15540       16.8048
        15560       16.8048
        15580       16.8047
        15600       16.8047
        15620       16.8046
        15640       16.8046
        15660       16.8045
        15680       16.8045
        15700       16.8044
        15720       16.8044
        15740       16.8043
        15760       16.8043
        15780       16.8043
        15800       16.8042
        15820       16.8042
        15840       16.8041
        15860       16.8041
        15880        16.804
        15900        16.804
        15920       16.8039
        15940       16.8039
        15960       16.8038
        15980       16.8038
        16000       16.8037
        16020       16.8037
        16040       16.8036
        16060       16.8036
        16080       16.8035
        16100       16.8035
        16120       16.8034
        16140       16.8034
        16160       16.8033
        16180       16.8033
        16200       16.8032
        16220       16.8032
        16240       16.8031
        16260        16.803
        16280        16.803
        16300       16.8029
        16320       16.8029
        16340       16.8028
        16360       16.8028
        16380       16.8027
        16400       16.8027
        16420       16.8026
        16440       16.8026
        16460       16.8025
        16480       16.8025
        16500       16.8024
        16520       16.8024
        16540       16.8023
        16560       16.8022
        16580       16.8022
        16600       16.8021
        16620       16.8021
        16640        16.802
        16660        16.802
        16680       16.8019
        16700       16.8018
        16720       16.8018
        16740       16.8017
        16760       16.8017
        16780       16.8016
        16800       16.8016
        16820       16.8015
        16840       16.8014
        16860       16.8014
        16880       16.8013
        16900       16.8013
        16920       16.8012
        16940       16.8012
        16960       16.8011
        16980        16.801
        17000        16.801
        17020       16.8009
        17040       16.8009
        17060       16.8008
        17080       16.8007
        17100       16.8007
        17120       16.8006
        17140       16.8006
        17160       16.8005
        17180       16.8004
        17200       16.8004
        17220       16.8003
        17240       16.8002
        17260       16.8002
        17280       16.8001
        17300       16.8001
        17320          16.8
        17340       16.7999
        17360       16.7999
        17380       16.7998
        17400       16.7997
        17420       16.7997
        17440       16.7996
        17460       16.7995
        17480       16.7995
        17500       16.7994
        17520       16.7993
        17540       16.7993
        17560       16.7992
        17580       16.7992
        17600       16.7991
        17620        16.799
        17640        16.799
        17660       16.7989
        17680       16.7988
        17700       16.7987
        17720       16.7987
        17740       16.7986
        17760       16.7985
        17780       16.7985
        17800       16.7984
        17820       16.7983
        17840       16.7983
        17860       16.7982
        17880       16.7981
        17900       16.7981
        17920        16.798
        17940       16.7979
        17960       16.7979
        17980       16.7978
        18000       16.7977
        18020       16.7976
        18040       16.7976
        18060       16.7975
        18080       16.7974
        18100       16.7974
        18120       16.7973
        18140       16.7972
        18160       16.7971
        18180       16.7971
        18200        16.797
        18220       16.7969
        18240       16.7968
        18260       16.7968
        18280       16.7967
        18300       16.7966
        18320       16.7965
        18340       16.7965
        18360       16.7964
        18380       16.7963
        18400       16.7962
        18420       16.7962
        18440       16.7961
        18460        16.796
        18480       16.7959
        18500       16.7959
        18520       16.7958
        18540       16.7957
        18560       16.7956
        18580       16.7956
        18600       16.7955
        18620       16.7954
        18640       16.7953
        18660       16.7952
        18680       16.7952
        18700       16.7951
        18720        16.795
        18740       16.7949
        18760       16.7948
        18780       16.7948
        18800       16.7947
        18820       16.7946
        18840       16.7945
        18860       16.7944
        18880       16.7944
        18900       16.7943
        18920       16.7942
        18940       16.7941
        18960        16.794
        18980       16.7939
        19000       16.7939
        19020       16.7938
        19040       16.7937
        19060       16.7936
        19080       16.7935
        19100       16.7934
        19120       16.7933
        19140       16.7933
        19160       16.7932
        19180       16.7931
        19200        16.793
        19220       16.7929
        19240       16.7928
        19260       16.7927
        19280       16.7927
        19300       16.7926
        19320       16.7925
        19340       16.7924
        19360       16.7923
        19380       16.7922
        19400       16.7921
        19420        16.792
        19440        16.792
        19460       16.7919
        19480       16.7918
        19500       16.7917
        19520       16.7916
        19540       16.7915
        19560       16.7914
        19580       16.7913
        19600       16.7912
        19620       16.7911
        19640        16.791
        19660        16.791
        19680       16.7909
        19700       16.7908
        19720       16.7907
        19740       16.7906
        19760       16.7905
        19780       16.7904
        19800       16.7903
        19820       16.7902
        19840       16.7901
        19860         16.79
        19880       16.7899
        19900       16.7898
        19920       16.7897
        19940       16.7896
        19960       16.7895
        19980       16.7894
        20000       16.7893
        20020       16.7892
        20040       16.7891
        20060        16.789
        20080       16.7889
        20100       16.7888
        20120       16.7888
        20140       16.7887
        20160       16.7886
        20180       16.7885
        20200       16.7884
        20220       16.7883
        20240       16.7882
        20260        16.788
        20280       16.7879
        20300       16.7878
        20320       16.7877
        20340       16.7876
        20360       16.7875
        20380       16.7874
        20400       16.7873
        20420       16.7872
        20440       16.7871
        20460        16.787
        20480       16.7869
        20500       16.7868
        20520       16.7867
        20540       16.7866
        20560       16.7865
        20580       16.7864
        20600       16.7863
        20620       16.7862
        20640       16.7861
        20660        16.786
        20680       16.7859
        20700       16.7858
        20720       16.7856
        20740       16.7855
        20760       16.7854
        20780       16.7853
        20800       16.7852
        20820       16.7851
        20840        16.785
        20860       16.7849
        20880       16.7848
        20900       16.7847
        20920       16.7845
        20940       16.7844
        20960       16.7843
        20980       16.7842
        21000       16.7841
        21020        16.784
        21040       16.7839
        21060       16.7838
        21080       16.7836
        21100       16.7835
        21120       16.7834
        21140       16.7833
        21160       16.7832
        21180       16.7831
        21200        16.783
        21220       16.7828
        21240       16.7827
        21260       16.7826
        21280       16.7825
        21300       16.7824
        21320       16.7823
        21340       16.7821
        21360        16.782