# Probe 0 (0.05 0.05 0.005)
#       Probe             0
#        Time
           20       3.71413
           40       3.71413
           60       3.71413
           80       3.71413
          100       3.71413
          120       3.71413
          140       3.71413
          160       3.71413
          180       3.71413
          200       3.71413
          220       3.71413
          240       3.71413
          260       3.71413
          280       3.71413
          300       3.71413
          320       3.71413
          340       3.71413
          360       3.71413
          380       3.71413
          400       3.71413
          420       3.71413
          440       3.71413
          460       3.71413
          480       3.71413
          500       3.71413
          520       3.71413
          540       3.71413
          560       3.71413
          580       3.71413
          600       3.71413
          620       3.71413
          640       3.71413
          660       3.71413
          680       3.71413
          700       3.71413
          720       3.71413
          740       3.71413
          760       3.71413
          780       3.71413
          800       3.71413
          820       3.71413
          840       3.71413
          860       3.71413
          880       3.71413
          900       3.71413
          920       3.71413
          940       3.71413
          960       3.71413
          980       3.71413
         1000       3.71413
         1020       3.71413
         1040       3.71413
         1060       3.71413
         1080       3.71413
         1100       3.71413
         1120       3.71413
         1140       3.71413
         1160       3.71413
         1180       3.71413
         1200       3.71413
         1220       3.71413
         1240       3.71413
         1260       3.71413
         1280       3.71413
         1300       3.71413
         1320       3.71413
         1340       3.71413
         1360       3.71413
         1380       3.71413
         1400       3.71413
         1420       3.71413
         1440       3.71413
         1460       3.71413
         1480       3.71413
         1500       3.71413
         1520       3.71413
         1540       3.71413
         1560       3.71413
         1580       3.71413
         1600       3.71413
         1620       3.71413
         1640       3.71413
         1660       3.71413
         1680       3.71413
         1700       3.71413
         1720       3.71413
         1740       3.71413
         1760       3.71413
         1780       3.71413
         1800       3.71413
         1820       3.71413
         1840       3.71413
         1860       3.71413
         1880       3.71413
         1900       3.71413
         1920       3.71413
         1940       3.71413
         1960       3.71413
         1980       3.71413
         2000       3.71413
         2020       3.71413
         2040       3.71413
         2060       3.71413
         2080       3.71413
         2100       3.71413
         2120       3.71413
         2140       3.71413
         2160       3.71413
         2180       3.71413
         2200       3.71413
         2220       3.71413
         2240       3.71413
         2260       3.71413
         2280       3.71413
         2300       3.71413
         2320       3.71413
         2340       3.71413
         2360       3.71413
         2380       3.71413
         2400       3.71413
         2420       3.71413
         2440       3.71413
         2460       3.71413
         2480       3.71413
         2500       3.71413
         2520       3.71413
         2540       3.71413
         2560       3.71413
         2580       3.71413
         2600       3.71413
         2620       3.71413
         2640       3.71413
         2660       3.71413
         2680       3.71413
         2700       3.71413
         2720       3.71413
         2740       3.71413
         2760       3.71413
         2780       3.71413
         2800       3.71413
         2820       3.71413
         2840       3.71413
         2860       3.71413
         2880       3.71413
         2900       3.71413
         2920       3.71413
         2940       3.71413
         2960       3.71413
         2980       3.71413
         3000       3.71413
         3020       3.71413
         3040       3.71413
         3060       3.71413
         3080       3.71413
         3100       3.71413
         3120       3.71413
         3140       3.71413
         3160       3.71413
         3180       3.71413
         3200       3.71413
         3220       3.71413
         3240       3.71413
         3260       3.71413
         3280       3.71413
         3300       3.71413
         3320       3.71413
         3340       3.71413
         3360       3.71413
         3380       3.71413
         3400       3.71413
         3420       3.71413
         3440       3.71413
         3460       3.71413
         3480       3.71413
         3500       3.71413
         3520       3.71413
         3540       3.71413
         3560       3.71413
         3580       3.71413
         3600       3.71413
         3620       3.71413
         3640       3.71413
         3660       3.71413
         3680       3.71413
         3700       3.71413
         3720       3.71413
         3740       3.71413
         3760       3.71413
         3780       3.71413
         3800       3.71413
         3820       3.71413
         3840       3.71413
         3860       3.71413
         3880       3.71413
         3900       3.71413
         3920       3.71413
         3940       3.71413
         3960       3.71413
         3980       3.71413
         4000       3.71413
         4020       3.71413
         4040       3.71413
         4060       3.71413
         4080       3.71413
         4100       3.71413
         4120       3.71413
         4140       3.71413
         4160       3.71413
         4180       3.71413
         4200       3.71413
         4220       3.71413
         4240       3.71413
         4260       3.71413
         4280       3.71413
         4300       3.71413
         4320       3.71413
         4340       3.71413
         4360       3.71413
         4380       3.71413
         4400       3.71413
         4420       3.71413
         4440       3.71413
         4460       3.71413
         4480       3.71413
         4500       3.71413
         4520       3.71413
         4540       3.71413
         4560       3.71413
         4580       3.71413
         4600       3.71413
         4620       3.71413
         4640       3.71413
         4660       3.71413
         4680       3.71412
         4700       3.71412
         4720       3.71412
         4740       3.71412
         4760       3.71412
         4780       3.71412
         4800       3.71412
         4820       3.71412
         4840       3.71412
         4860       3.71412
         4880       3.71412
         4900       3.71412
         4920       3.71412
         4940       3.71412
         4960       3.71412
         4980       3.71412
         5000       3.71412
         5020       3.71412
         5040       3.71412
         5060       3.71412
         5080       3.71412
         5100       3.71412
         5120       3.71412
         5140       3.71412
         5160       3.71412
         5180       3.71412
         5200       3.71412
         5220       3.71412
         5240       3.71412
         5260       3.71412
         5280       3.71412
         5300       3.71412
         5320       3.71412
         5340       3.71412
         5360       3.71412
         5380       3.71412
         5400       3.71412
         5420       3.71412
         5440       3.71412
         5460       3.71412
         5480       3.71412
         5500       3.71412
         5520       3.71412
         5540       3.71412
         5560       3.71412
         5580       3.71412
         5600       3.71412
         5620       3.71412
         5640       3.71412
         5660       3.71412
         5680       3.71412
         5700       3.71412
         5720       3.71412
         5740       3.71412
         5760       3.71412
         5780       3.71412
         5800       3.71412
         5820       3.71412
         5840       3.71412
         5860       3.71412
         5880       3.71412
         5900       3.71412
         5920       3.71412
         5940       3.71412
         5960       3.71412
         5980       3.71412
         6000       3.71412
         6020       3.71412
         6040       3.71411
         6060       3.71411
         6080       3.71411
         6100       3.71411
         6120       3.71411
         6140       3.71411
         6160       3.71411
         6180       3.71411
         6200       3.71411
         6220       3.71411
         6240       3.71411
         6260       3.71411
         6280       3.71411
         6300       3.71411
         6320       3.71411
         6340       3.71411
         6360       3.71411
         6380       3.71411
         6400       3.71411
         6420       3.71411
         6440       3.71411
         6460       3.71411
         6480       3.71411
         6500       3.71411
         6520       3.71411
         6540       3.71411
         6560       3.71411
         6580       3.71411
         6600       3.71411
         6620       3.71411
         6640       3.71411
         6660       3.71411
         6680       3.71411
         6700       3.71411
         6720       3.71411
         6740       3.71411
         6760       3.71411
         6780       3.71411
         6800       3.71411
         6820        3.7141
         6840        3.7141
         6860        3.7141
         6880        3.7141
         6900        3.7141
         6920        3.7141
         6940        3.7141
         6960        3.7141
         6980        3.7141
         7000        3.7141
         7020        3.7141
         7040        3.7141
         7060        3.7141
         7080        3.7141
         7100        3.7141
         7120        3.7141
         7140        3.7141
         7160        3.7141
         7180        3.7141
         7200        3.7141
         7220        3.7141
         7240        3.7141
         7260        3.7141
         7280        3.7141
         7300        3.7141
         7320        3.7141
         7340        3.7141
         7360        3.7141
         7380        3.7141
         7400       3.71409
         7420       3.71409
         7440       3.71409
         7460       3.71409
         7480       3.71409
         7500       3.71409
         7520       3.71409
         7540       3.71409
         7560       3.71409
         7580       3.71409
         7600       3.71409
         7620       3.71409
         7640       3.71409
         7660       3.71409
         7680       3.71409
         7700       3.71409
         7720       3.71409
         7740       3.71409
         7760       3.71409
         7780       3.71409
         7800       3.71409
         7820       3.71409
         7840       3.71409
         7860       3.71409
         7880       3.71408
         7900       3.71408
         7920       3.71408
         7940       3.71408
         7960       3.71408
         7980       3.71408
         8000       3.71408
         8020       3.71408
         8040       3.71408
         8060       3.71408
         8080       3.71408
         8100       3.71408
         8120       3.71408
         8140       3.71408
         8160       3.71408
         8180       3.71408
         8200       3.71408
         8220       3.71408
         8240       3.71408
         8260       3.71408
         8280       3.71407
         8300       3.71407
         8320       3.71407
         8340       3.71407
         8360       3.71407
         8380       3.71407
         8400       3.71407
         8420       3.71407
         8440       3.71407
         8460       3.71407
         8480       3.71407
         8500       3.71407
         8520       3.71407
         8540       3.71407
         8560       3.71407
         8580       3.71407
         8600       3.71407
         8620       3.71406
         8640       3.71406
         8660       3.71406
         8680       3.71406
         8700       3.71406
         8720       3.71406
         8740       3.71406
         8760       3.71406
         8780       3.71406
         8800       3.71406
         8820       3.71406
         8840       3.71406
         8860       3.71406
         8880       3.71406
         8900       3.71406
         8920       3.71406
         8940       3.71405
         8960       3.71405
         8980       3.71405
         9000       3.71405
         9020       3.71405
         9040       3.71405
         9060       3.71405
         9080       3.71405
         9100       3.71405
         9120       3.71405
         9140       3.71405
         9160       3.71405
         9180       3.71405
         9200       3.71405
         9220       3.71404
         9240       3.71404
         9260       3.71404
         9280       3.71404
         9300       3.71404
         9320       3.71404
         9340       3.71404
         9360       3.71404
         9380       3.71404
         9400       3.71404
         9420       3.71404
         9440       3.71404
         9460       3.71404
         9480       3.71403
         9500       3.71403
         9520       3.71403
         9540       3.71403
         9560       3.71403
         9580       3.71403
         9600       3.71403
         9620       3.71403
         9640       3.71403
         9660       3.71403
         9680       3.71403
         9700       3.71403
         9720       3.71402
         9740       3.71402
         9760       3.71402
         9780       3.71402
         9800       3.71402
         9820       3.71402
         9840       3.71402
         9860       3.71402
         9880       3.71402
         9900       3.71402
         9920       3.71402
         9940       3.71401
         9960       3.71401
         9980       3.71401
        10000       3.71401
        10020       3.71401
        10040       3.71401
        10060       3.71401
        10080       3.71401
        10100       3.71401
        10120       3.71401
        10140         3.714
        10160         3.714
        10180         3.714
        10200         3.714
        10220         3.714
        10240         3.714
        10260         3.714
        10280         3.714
        10300         3.714
        10320         3.714
        10340       3.71399
        10360       3.71399
        10380       3.71399
        10400       3.71399
        10420       3.71399
        10440       3.71399
        10460       3.71399
        10480       3.71399
        10500       3.71399
        10520       3.71398
        10540       3.71398
        10560       3.71398
        10580       3.71398
        10600       3.71398
        10620       3.71398
        10640       3.71398
        10660       3.71398
        10680       3.71398
        10700       3.71397
        10720       3.71397
        10740       3.71397
        10760       3.71397
        10780       3.71397
        10800       3.71397
        10820       3.71397
        10840       3.71397
        10860       3.71396
        10880       3.71396
        10900       3.71396
        10920       3.71396
        10940       3.71396
        10960       3.71396
        10980       3.71396
        11000       3.71396
        11020       3.71395
        11040       3.71395
        11060       3.71395
        11080       3.71395
        11100       3.71395
        11120       3.71395
        11140       3.71395
        11160       3.71395
        11180       3.71394
        11200       3.71394
        11220       3.71394
        11240       3.71394
        11260       3.71394
        11280       3.71394
        11300       3.71394
        11320       3.71393
        11340       3.71393
        11360       3.71393
        11380       3.71393
        11400       3.71393
        11420       3.71393
        11440       3.71393
        11460       3.71393
        11480       3.71392
        11500       3.71392
        11520       3.71392
        11540       3.71392
        11560       3.71392
        11580       3.71392
        11600       3.71391
        11620       3.71391
        11640       3.71391
        11660       3.71391
        11680       3.71391
        11700       3.71391
        11720       3.71391
        11740        3.7139
        11760        3.7139
        11780        3.7139
        11800        3.7139
        11820        3.7139
        11840        3.7139
        11860       3.71389
        11880       3.71389
        11900       3.71389
        11920       3.71389
        11940       3.71389
        11960       3.71389
        11980       3.71389
        12000       3.71388
        12020       3.71388
        12040       3.71388
        12060       3.71388
        12080       3.71388
        12100       3.71388
        12120       3.71387
        12140       3.71387
        12160       3.71387
        12180       3.71387
        12200       3.71387
        12220       3.71386
        12240       3.71386
        12260       3.71386
        12280       3.71386
        12300       3.71386
        12320       3.71386
        12340       3.71385
        12360       3.71385
        12380       3.71385
        12400       3.71385
        12420       3.71385
        12440       3.71385
        12460       3.71384
        12480       3.71384
        12500       3.71384
        12520       3.71384
        12540       3.71384
        12560       3.71383
        12580       3.71383
        12600       3.71383
        12620       3.71383
        12640       3.71383
        12660       3.71382
        12680       3.71382
        12700       3.71382
        12720       3.71382
        12740       3.71382
        12760       3.71381
        12780       3.71381
        12800       3.71381
        12820       3.71381
        12840       3.71381
        12860        3.7138
        12880        3.7138
        12900        3.7138
        12920        3.7138
        12940        3.7138
        12960       3.71379
        12980       3.71379
        13000       3.71379
        13020       3.71379
        13040       3.71379
        13060       3.71378
        13080       3.71378
        13100       3.71378
        13120       3.71378
        13140       3.71378
        13160       3.71377
        13180       3.71377
        13200       3.71377
        13220       3.71377
        13240       3.71376
        13260       3.71376
        13280       3.71376
        13300       3.71376
        13320       3.71376
        13340       3.71375
        13360       3.71375
        13380       3.71375
        13400       3.71375
        13420       3.71374
        13440       3.71374
        13460       3.71374
        13480       3.71374
        13500       3.71373
        13520       3.71373
        13540       3.71373
        13560       3.71373
        13580       3.71373
        13600       3.71372
        13620       3.71372
        13640       3.71372
        13660       3.71372
        13680       3.71371
        13700       3.71371
        13720       3.71371
        13740       3.71371
        13760        3.7137
        13780        3.7137
        13800        3.7137
        13820        3.7137
        13840       3.71369
        13860       3.71369
        13880       3.71369
        13900       3.71369
        13920       3.71368
        13940       3.71368
        13960       3.71368
        13980       3.71368
        14000       3.71367
        14020       3.71367
        14040       3.71367
        14060       3.71366
        14080       3.71366
        14100       3.71366
        14120       3.71366
        14140       3.71365
        14160       3.71365
        14180       3.71365
        14200       3.71365
        14220       3.71364
        14240       3.71364
        14260       3.71364
        14280       3.71363
        14300       3.71363
        14320       3.71363
        14340       3.71363
        14360       3.71362
        14380       3.71362
        14400       3.71362
        14420       3.71362
        14440       3.71361
        14460       3.71361
        14480       3.71361
        14500        3.7136
        14520        3.7136
        14540        3.7136
        14560       3.71359
        14580       3.71359
        14600       3.71359
        14620       3.71359
        14640       3.71358
        14660       3.71358
        14680       3.71358
        14700       3.71357
        14720       3.71357
        14740       3.71357
        14760       3.71356
        14780       3.71356
        14800       3.71356
        14820       3.71356
        14840       3.71355
        14860       3.71355
        14880       3.71355
        14900       3.71354
        14920       3.71354
        14940       3.71354
        14960       3.71353
        14980       3.71353
        15000       3.71353
        15020       3.71352
        15040       3.71352
        15060       3.71352
        15080       3.71351
        15100       3.71351
        15120       3.71351
        15140        3.7135
        15160        3.7135
        15180        3.7135
        15200       3.71349
        15220       3.71349
        15240       3.71349
        15260       3.71348
        15280       3.71348
        15300       3.71348
        15320       3.71347
        15340       3.71347
        15360       3.71347
        15380       3.71346
        15400       3.71346
        15420       3.71346
        15440       3.71345
        15460       3.71345
        15480       3.71345
        15500       3.71344
        15520       3.71344
        15540       3.71344
        15560       3.71343
        15580       3.71343
        15600       3.71342
        15620       3.71342
        15640       3.71342
        15660       3.71341
        15680       3.71341
        15700       3.71341
        15720        3.7134
        15740        3.7134
        15760        3.7134
        15780       3.71339
        15800       3.71339
        15820       3.71338
        15840       3.71338
        15860       3.71338
        15880       3.71337
        15900       3.71337
        15920       3.71336
        15940       3.71336
        15960       3.71336
        15980       3.71335
        16000       3.71335
        16020       3.71335
        16040       3.71334
        16060       3.71334
        16080       3.71333
        16100       3.71333
        16120       3.71333
        16140       3.71332
        16160       3.71332
        16180       3.71331
        16200       3.71331
        16220       3.71331
        16240        3.7133
        16260        3.7133
        16280       3.71329
        16300       3.71329
        16320       3.71328
        16340       3.71328
        16360       3.71328
        16380       3.71327
        16400       3.71327
        16420       3.71326
        16440       3.71326
        16460       3.71326
        16480       3.71325
        16500       3.71325
        16520       3.71324
        16540       3.71324
        16560       3.71323
        16580       3.71323
        16600       3.71323
        16620       3.71322
        16640       3.71322
        16660       3.71321
        16680       3.71321
        16700        3.7132
        16720        3.7132
        16740       3.71319
        16760       3.71319
        16780       3.71319
        16800       3.71318
        16820       3.71318
        16840       3.71317
        16860       3.71317
        16880       3.71316
        16900       3.71316
        16920       3.71315
        16940       3.71315
        16960       3.71314
        16980       3.71314
        17000       3.71313
        17020       3.71313
        17040       3.71313
        17060       3.71312
        17080       3.71312
        17100       3.71311
        17120       3.71311
        17140        3.7131
        17160        3.7131
        17180       3.71309
        17200       3.71309
        17220       3.71308
        17240       3.71308
        17260       3.71307
        17280       3.71307
        17300       3.71306
        17320       3.71306
        17340       3.71305
        17360       3.71305
        17380       3.71304
        17400       3.71304
        17420       3.71303
        17440       3.71303
        17460       3.71302
        17480       3.71302
        17500       3.71301
        17520       3.71301
        17540         3.713
        17560         3.713
        17580       3.71299
        17600       3.71299
        17620       3.71298
        17640       3.71298
        17660       3.71297
        17680       3.71297
        17700       3.71296
        17720       3.71296
        17740       3.71295
        17760       3.71294
        17780       3.71294
        17800       3.71293
        17820       3.71293
        17840       3.71292
        17860       3.71292
        17880       3.71291
        17900       3.71291
        17920        3.7129
        17940        3.7129
        17960       3.71289
        17980       3.71288
        18000       3.71288
        18020       3.71287
        18040       3.71287
        18060       3.71286
        18080       3.71286
        18100       3.71285
        18120       3.71285
        18140       3.71284
        18160       3.71283
        18180       3.71283
        18200       3.71282
        18220       3.71282
        18240       3.71281
        18260       3.71281
        18280        3.7128
        18300       3.71279
        18320       3.71279
        18340       3.71278
        18360       3.71278
        18380       3.71277
        18400       3.71276
        18420       3.71276
        18440       3.71275
        18460       3.71275
        18480       3.71274
        18500       3.71273
        18520       3.71273
        18540       3.71272
        18560       3.71272
        18580       3.71271
        18600        3.7127
        18620        3.7127
        18640       3.71269
        18660       3.71269
        18680       3.71268
        18700       3.71267
        18720       3.71267
        18740       3.71266
        18760       3.71265
        18780       3.71265
        18800       3.71264
        18820       3.71263
        18840       3.71263
        18860       3.71262
        18880       3.71262
        18900       3.71261
        18920        3.7126
        18940        3.7126
        18960       3.71259
        18980       3.71258
        19000       3.71258
        19020       3.71257
        19040       3.71256
        19060       3.71256
        19080       3.71255
        19100       3.71254
        19120       3.71254
        19140       3.71253
        19160       3.71252
        19180       3.71252
        19200       3.71251
        19220        3.7125
        19240        3.7125
        19260       3.71249
        19280       3.71248
        19300       3.71248
        19320       3.71247
        19340       3.71246
        19360       3.71246
        19380       3.71245
        19400       3.71244
        19420       3.71243
        19440       3.71243
        19460       3.71242
        19480       3.71241
        19500       3.71241
        19520        3.7124
        19540       3.71239
        19560       3.71239
        19580       3.71238
        19600       3.71237
        19620       3.71236
        19640       3.71236
        19660       3.71235
        19680       3.71234
        19700       3.71233
        19720       3.71233
        19740       3.71232
        19760       3.71231
        19780       3.71231
        19800        3.7123
        19820       3.71229
        19840       3.71228
        19860       3.71228
        19880       3.71227
        19900       3.71226
        19920       3.71225
        19940       3.71225
        19960       3.71224
        19980       3.71223
        20000       3.71222
        20020       3.71222
        20040       3.71221
        20060        3.7122
        20080       3.71219
        20100       3.71218
        20120       3.71218
        20140       3.71217
        20160       3.71216
        20180       3.71215
        20200       3.71215
        20220       3.71214
        20240       3.71213
        20260       3.71212
        20280       3.71211
        20300       3.71211
        20320        3.7121
        20340       3.71209
        20360       3.71208
        20380       3.71207
        20400       3.71207
        20420       3.71206
        20440       3.71205
        20460       3.71204
        20480       3.71203
        20500       3.71203
        20520       3.71202
        20540       3.71201
        20560         3.712
        20580       3.71199
        20600       3.71198
        20620       3.71198
        20640       3.71197
        20660       3.71196
        20680       3.71195
        20700       3.71194
        20720       3.71193
        20740       3.71192
        20760       3.71192
        20780       3.71191
        20800        3.7119
        20820       3.71189
        20840       3.71188
        20860       3.71187
        20880       3.71186
        20900       3.71186
        20920       3.71185
        20940       3.71184
        20960       3.71183
        20980       3.71182
        21000       3.71181
        21020        3.7118
        21040       3.71179
        21060       3.71179
        21080       3.71178
        21100       3.71177
        21120       3.71176
        21140       3.71175
        21160       3.71174
        21180       3.71173
        21200       3.71172
        21220       3.71171
        21240        3.7117
        21260        3.7117
        21280       3.71169
        21300       3.71168
        21320       3.71167
        21340       3.71166
        21360       3.71165