# Probe 0 (0.05 0.05 0.005)
#       Probe             0
#        Time
           20       5177.63
           40       5177.63
           60       5177.63
           80       5177.63
          100       5177.63
          120       5177.63
          140       5177.63
          160       5177.63
          180       5177.63
          200       5177.63
          220       5177.63
          240       5177.63
          260       5177.63
          280       5177.63
          300       5177.63
          320       5177.63
          340       5177.63
          360       5177.63
          380       5177.63
          400       5177.63
          420       5177.63
          440       5177.63
          460       5177.63
          480       5177.63
          500       5177.63
          520       5177.63
          540       5177.63
          560       5177.63
          580       5177.63
          600       5177.63
          620       5177.63
          640       5177.63
          660       5177.63
          680       5177.63
          700       5177.63
          720       5177.63
          740       5177.63
          760       5177.63
          780       5177.63
          800       5177.63
          820       5177.63
          840       5177.63
          860       5177.63
          880       5177.63
          900       5177.63
          920       5177.63
          940       5177.63
          960       5177.63
          980       5177.63
         1000       5177.63
         1020       5177.63
         1040       5177.63
         1060       5177.63
         1080       5177.63
         1100       5177.63
         1120       5177.63
         1140       5177.63
         1160       5177.63
         1180       5177.63
         1200       5177.63
         1220       5177.63
         1240       5177.63
         1260       5177.63
         1280       5177.63
         1300       5177.63
         1320       5177.63
         1340       5177.63
         1360       5177.63
         1380       5177.63
         1400       5177.63
         1420       5177.62
         1440       5177.62
         1460       5177.62
         1480       5177.62
         1500       5177.62
         1520       5177.62
         1540       5177.62
         1560       5177.62
         1580       5177.62
         1600       5177.62
         1620       5177.62
         1640       5177.62
         1660       5177.62
         1680       5177.62
         1700       5177.62
         1720       5177.62
         1740       5177.62
         1760       5177.62
         1780       5177.62
         1800       5177.62
         1820       5177.62
         1840       5177.62
         1860       5177.62
         1880       5177.62
         1900       5177.62
         1920       5177.62
         1940       5177.62
         1960       5177.62
         1980       5177.62
         2000       5177.62
         2020       5177.62
         2040       5177.62
         2060       5177.62
         2080       5177.62
         2100       5177.62
         2120       5177.62
         2140       5177.62
         2160       5177.62
         2180       5177.62
         2200       5177.62
         2220       5177.62
         2240       5177.62
         2260       5177.62
         2280       5177.62
         2300       5177.62
         2320       5177.62
         2340       5177.62
         2360       5177.62
         2380       5177.62
         2400       5177.62
         2420       5177.62
         2440       5177.62
         2460       5177.62
         2480       5177.62
         2500       5177.62
         2520       5177.62
         2540       5177.62
         2560       5177.62
         2580       5177.62
         2600       5177.62
         2620       5177.62
         2640       5177.62
         2660       5177.62
         2680       5177.62
         2700       5177.62
         2720       5177.62
         2740       5177.62
         2760       5177.62
         2780       5177.62
         2800       5177.62
         2820       5177.62
         2840       5177.62
         2860       5177.62
         2880       5177.62
         2900       5177.62
         2920       5177.62
         2940       5177.62
         2960       5177.61
         2980       5177.61
         3000       5177.61
         3020       5177.61
         3040       5177.61
         3060       5177.61
         3080       5177.61
         3100       5177.61
         3120       5177.61
         3140       5177.61
         3160       5177.61
         3180       5177.61
         3200       5177.61
         3220       5177.61
         3240       5177.61
         3260       5177.61
         3280       5177.61
         3300       5177.61
         3320       5177.61
         3340       5177.61
         3360       5177.61
         3380       5177.61
         3400       5177.61
         3420       5177.61
         3440       5177.61
         3460       5177.61
         3480        5177.6
         3500        5177.6
         3520        5177.6
         3540        5177.6
         3560        5177.6
         3580        5177.6
         3600        5177.6
         3620        5177.6
         3640        5177.6
         3660        5177.6
         3680        5177.6
         3700        5177.6
         3720        5177.6
         3740        5177.6
         3760        5177.6
         3780        5177.6
         3800        5177.6
         3820        5177.6
         3840       5177.59
         3860       5177.59
         3880       5177.59
         3900       5177.59
         3920       5177.59
         3940       5177.59
         3960       5177.59
         3980       5177.59
         4000       5177.59
         4020       5177.59
         4040       5177.59
         4060       5177.59
         4080       5177.59
         4100       5177.59
         4120       5177.58
         4140       5177.58
         4160       5177.58
         4180       5177.58
         4200       5177.58
         4220       5177.58
         4240       5177.58
         4260       5177.58
         4280       5177.58
         4300       5177.58
         4320       5177.58
         4340       5177.58
         4360       5177.57
         4380       5177.57
         4400       5177.57
         4420       5177.57
         4440       5177.57
         4460       5177.57
         4480       5177.57
         4500       5177.57
         4520       5177.57
         4540       5177.57
         4560       5177.56
         4580       5177.56
         4600       5177.56
         4620       5177.56
         4640       5177.56
         4660       5177.56
         4680       5177.56
         4700       5177.56
         4720       5177.56
         4740       5177.55
         4760       5177.55
         4780       5177.55
         4800       5177.55
         4820       5177.55
         4840       5177.55
         4860       5177.55
         4880       5177.55
         4900       5177.54
         4920       5177.54
         4940       5177.54
         4960       5177.54
         4980       5177.54
         5000       5177.54
         5020       5177.54
         5040       5177.53
         5060       5177.53
         5080       5177.53
         5100       5177.53
         5120       5177.53
         5140       5177.53
         5160       5177.53
         5180       5177.52
         5200       5177.52
         5220       5177.52
         5240       5177.52
         5260       5177.52
         5280       5177.52
         5300       5177.51
         5320       5177.51
         5340       5177.51
         5360       5177.51
         5380       5177.51
         5400       5177.51
         5420        5177.5
         5440        5177.5
         5460        5177.5
         5480        5177.5
         5500        5177.5
         5520       5177.49
         5540       5177.49
         5560       5177.49
         5580       5177.49
         5600       5177.49
         5620       5177.48
         5640       5177.48
         5660       5177.48
         5680       5177.48
         5700       5177.48
         5720       5177.47
         5740       5177.47
         5760       5177.47
         5780       5177.47
         5800       5177.47
         5820       5177.46
         5840       5177.46
         5860       5177.46
         5880       5177.46
         5900       5177.45
         5920       5177.45
         5940       5177.45
         5960       5177.45
         5980       5177.44
         6000       5177.44
         6020       5177.44
         6040       5177.44
         6060       5177.43
         6080       5177.43
         6100       5177.43
         6120       5177.43
         6140       5177.42
         6160       5177.42
         6180       5177.42
         6200       5177.42
         6220       5177.41
         6240       5177.41
         6260       5177.41
         6280        5177.4
         6300        5177.4
         6320        5177.4
         6340        5177.4
         6360       5177.39
         6380       5177.39
         6400       5177.39
         6420       5177.38
         6440       5177.38
         6460       5177.38
         6480       5177.38
         6500       5177.37
         6520       5177.37
         6540       5177.37
         6560       5177.36
         6580       5177.36
         6600       5177.36
         6620       5177.35
         6640       5177.35
         6660       5177.35
         6680       5177.34
         6700       5177.34
         6720       5177.34
         6740       5177.33
         6760       5177.33
         6780       5177.33
         6800       5177.32
         6820       5177.32
         6840       5177.31
         6860       5177.31
         6880       5177.31
         6900        5177.3
         6920        5177.3
         6940        5177.3
         6960       5177.29
         6980       5177.29
         7000       5177.28
         7020       5177.28
         7040       5177.28
         7060       5177.27
         7080       5177.27
         7100       5177.26
         7120       5177.26
         7140       5177.26
         7160       5177.25
         7180       5177.25
         7200       5177.24
         7220       5177.24
         7240       5177.24
         7260       5177.23
         7280       5177.23
         7300       5177.22
         7320       5177.22
         7340       5177.21
         7360       5177.21
         7380        5177.2
         7400        5177.2
         7420        5177.2
         7440       5177.19
         7460       5177.19
         7480       5177.18
         7500       5177.18
         7520       5177.17
         7540       5177.17
         7560       5177.16
         7580       5177.16
         7600       5177.15
         7620       5177.15
         7640       5177.14
         7660       5177.14
         7680       5177.13
         7700       5177.13
         7720       5177.12
         7740       5177.12
         7760       5177.11
         7780       5177.11
         7800        5177.1
         7820       5177.09
         7840       5177.09
         7860       5177.08
         7880       5177.08
         7900       5177.07
         7920       5177.07
         7940       5177.06
         7960       5177.06
         7980       5177.05
         8000       5177.04
         8020       5177.04
         8040       5177.03
         8060       5177.03
         8080       5177.02
         8100       5177.01
         8120       5177.01
         8140          5177
         8160          5177
         8180       5176.99
         8200       5176.98
         8220       5176.98
         8240       5176.97
         8260       5176.96
         8280       5176.96
         8300       5176.95
         8320       5176.95
         8340       5176.94
         8360       5176.93
         8380       5176.93
         8400       5176.92
         8420       5176.91
         8440       5176.91
         8460        5176.9
         8480       5176.89
         8500       5176.88
         8520       5176.88
         8540       5176.87
         8560       5176.86
         8580       5176.86
         8600       5176.85
         8620       5176.84
         8640       5176.83
         8660       5176.83
         8680       5176.82
         8700       5176.81
         8720        5176.8
         8740        5176.8
         8760       5176.79
         8780       5176.78
         8800       5176.77
         8820       5176.77
         8840       5176.76
         8860       5176.75
         8880       5176.74
         8900       5176.73
         8920       5176.73
         8940       5176.72
         8960       5176.71
         8980        5176.7
         9000       5176.69
         9020       5176.69
         9040       5176.68
         9060       5176.67
         9080       5176.66
         9100       5176.65
         9120       5176.64
         9140       5176.63
         9160       5176.63
         9180       5176.62
         9200       5176.61
         9220        5176.6
         9240       5176.59
         9260       5176.58
         9280       5176.57
         9300       5176.56
         9320       5176.55
         9340       5176.54
         9360       5176.54
         9380       5176.53
         9400       5176.52
         9420       5176.51
         9440        5176.5
         9460       5176.49
         9480       5176.48
         9500       5176.47
         9520       5176.46
         9540       5176.45
         9560       5176.44
         9580       5176.43
         9600       5176.42
         9620       5176.41
         9640        5176.4
         9660       5176.39
         9680       5176.38
         9700       5176.37
         9720       5176.36
         9740       5176.35
         9760       5176.34
         9780       5176.33
         9800       5176.32
         9820        5176.3
         9840       5176.29
         9860       5176.28
         9880       5176.27
         9900       5176.26
         9920       5176.25
         9940       5176.24
         9960       5176.23
         9980       5176.22
        10000       5176.21
        10020       5176.19
        10040       5176.18
        10060       5176.17
        10080       5176.16
        10100       5176.15
        10120       5176.14
        10140       5176.12
        10160       5176.11
        10180        5176.1
        10200       5176.09
        10220       5176.08
        10240       5176.06
        10260       5176.05
        10280       5176.04
        10300       5176.03
        10320       5176.01
        10340          5176
        10360       5175.99
        10380       5175.98
        10400       5175.96
        10420       5175.95
        10440       5175.94
        10460       5175.93
        10480       5175.91
        10500        5175.9
        10520       5175.89
        10540       5175.87
        10560       5175.86
        10580       5175.85
        10600       5175.83
        10620       5175.82
        10640       5175.81
        10660       5175.79
        10680       5175.78
        10700       5175.76
        10720       5175.75
        10740       5175.74
        10760       5175.72
        10780       5175.71
        10800       5175.69
        10820       5175.68
        10840       5175.66
        10860       5175.65
        10880       5175.64
        10900       5175.62
        10920       5175.61
        10940       5175.59
        10960       5175.58
        10980       5175.56
        11000       5175.55
        11020       5175.53
        11040       5175.52
        11060        5175.5
        11080       5175.48
        11100       5175.47
        11120       5175.45
        11140       5175.44
        11160       5175.42
        11180       5175.41
        11200       5175.39
        11220       5175.37
        11240       5175.36
        11260       5175.34
        11280       5175.33
        11300       5175.31
        11320       5175.29
        11340       5175.28
        11360       5175.26
        11380       5175.24
        11400       5175.23
        11420       5175.21
        11440       5175.19
        11460       5175.18
        11480       5175.16
        11500       5175.14
        11520       5175.12
        11540       5175.11
        11560       5175.09
        11580       5175.07
        11600       5175.05
        11620       5175.04
        11640       5175.02
        11660          5175
        11680       5174.98
        11700       5174.96
        11720       5174.95
        11740       5174.93
        11760       5174.91
        11780       5174.89
        11800       5174.87
        11820       5174.85
        11840       5174.83
        11860       5174.82
        11880        5174.8
        11900       5174.78
        11920       5174.76
        11940       5174.74
        11960       5174.72
        11980        5174.7
        12000       5174.68
        12020       5174.66
        12040       5174.64
        12060       5174.62
        12080        5174.6
        12100       5174.58
        12120       5174.56
        12140       5174.54
        12160       5174.52
        12180        5174.5
        12200       5174.48
        12220       5174.46
        12240       5174.44
        12260       5174.42
        12280        5174.4
        12300       5174.37
        12320       5174.35
        12340       5174.33
        12360       5174.31
        12380       5174.29
        12400       5174.27
        12420       5174.25
        12440       5174.22
        12460        5174.2
        12480       5174.18
        12500       5174.16
        12520       5174.14
        12540       5174.11
        12560       5174.09
        12580       5174.07
        12600       5174.05
        12620       5174.02
        12640          5174
        12660       5173.98
        12680       5173.95
        12700       5173.93
        12720       5173.91
        12740       5173.88
        12760       5173.86
        12780       5173.84
        12800       5173.81
        12820       5173.79
        12840       5173.76
        12860       5173.74
        12880       5173.72
        12900       5173.69
        12920       5173.67
        12940       5173.64
        12960       5173.62
        12980       5173.59
        13000       5173.57
        13020       5173.54
        13040       5173.52
        13060       5173.49
        13080       5173.47
        13100       5173.44
        13120       5173.42
        13140       5173.39
        13160       5173.37
        13180       5173.34
        13200       5173.31
        13220       5173.29
        13240       5173.26
        13260       5173.23
        13280       5173.21
        13300       5173.18
        13320       5173.15
        13340       5173.13
        13360        5173.1
        13380       5173.07
        13400       5173.05
        13420       5173.02
        13440       5172.99
        13460       5172.96
        13480       5172.94
        13500       5172.91
        13520       5172.88
        13540       5172.85
        13560       5172.82
        13580       5172.79
        13600       5172.77
        13620       5172.74
        13640       5172.71
        13660       5172.68
        13680       5172.65
        13700       5172.62
        13720       5172.59
        13740       5172.56
        13760       5172.53
        13780        5172.5
        13800       5172.47
        13820       5172.44
        13840       5172.41
        13860       5172.38
        13880       5172.35
        13900       5172.32
        13920       5172.29
        13940       5172.26
        13960       5172.23
        13980        5172.2
        14000       5172.17
        14020       5172.14
        14040       5172.11
        14060       5172.07
        14080       5172.04
        14100       5172.01
        14120       5171.98
        14140       5171.95
        14160       5171.92
        14180       5171.88
        14200       5171.85
        14220       5171.82
        14240       5171.79
        14260       5171.75
        14280       5171.72
        14300       5171.69
        14320       5171.65
        14340       5171.62
        14360       5171.59
        14380       5171.55
        14400       5171.52
        14420       5171.48
        14440       5171.45
        14460       5171.42
        14480       5171.38
        14500       5171.35
        14520       5171.31
        14540       5171.28
        14560       5171.24
        14580       5171.21
        14600       5171.17
        14620       5171.14
        14640        5171.1
        14660       5171.07
        14680       5171.03
        14700       5170.99
        14720       5170.96
        14740       5170.92
        14760       5170.88
        14780       5170.85
        14800       5170.81
        14820       5170.77
        14840       5170.74
        14860        5170.7
        14880       5170.66
        14900       5170.63
        14920       5170.59
        14940       5170.55
        14960       5170.51
        14980       5170.47
        15000       5170.44
        15020        5170.4
        15040       5170.36
        15060       5170.32
        15080       5170.28
        15100       5170.24
        15120        5170.2
        15140       5170.16
        15160       5170.12
        15180       5170.08
        15200       5170.04
        15220          5170
        15240       5169.96
        15260       5169.92
        15280       5169.88
        15300       5169.84
        15320        5169.8
        15340       5169.76
        15360       5169.72
        15380       5169.68
        15400       5169.64
        15420        5169.6
        15440       5169.55
        15460       5169.51
        15480       5169.47
        15500       5169.43
        15520       5169.39
        15540       5169.34
        15560        5169.3
        15580       5169.26
        15600       5169.21
        15620       5169.17
        15640       5169.13
        15660       5169.08
        15680       5169.04
        15700          5169
        15720       5168.95
        15740       5168.91
        15760       5168.86
        15780       5168.82
        15800       5168.78
        15820       5168.73
        15840       5168.69
        15860       5168.64
        15880        5168.6
        15900       5168.55
        15920        5168.5
        15940       5168.46
        15960       5168.41
        15980       5168.37
        16000       5168.32
        16020       5168.27
        16040       5168.23
        16060       5168.18
        16080       5168.13
        16100       5168.08
        16120       5168.04
        16140       5167.99
        16160       5167.94
        16180       5167.89
        16200       5167.85
        16220        5167.8
        16240       5167.75
        16260        5167.7
        16280       5167.65
        16300        5167.6
        16320       5167.55
        16340        5167.5
        16360       5167.45
        16380        5167.4
        16400       5167.35
        16420        5167.3
        16440       5167.25
        16460        5167.2
        16480       5167.15
        16500        5167.1
        16520       5167.05
        16540          5167
        16560       5166.95
        16580        5166.9
        16600       5166.84
        16620       5166.79
        16640       5166.74
        16660       5166.69
        16680       5166.63
        16700       5166.58
        16720       5166.53
        16740       5166.48
        16760       5166.42
        16780       5166.37
        16800       5166.32
        16820       5166.26
        16840       5166.21
        16860       5166.15
        16880        5166.1
        16900       5166.04
        16920       5165.99
        16940       5165.93
        16960       5165.88
        16980       5165.82
        17000       5165.77
        17020       5165.71
        17040       5165.66
        17060        5165.6
        17080       5165.54
        17100       5165.49
        17120       5165.43
        17140       5165.37
        17160       5165.32
        17180       5165.26
        17200        5165.2
        17220       5165.14
        17240       5165.08
        17260       5165.03
        17280       5164.97
        17300       5164.91
        17320       5164.85
        17340       5164.79
        17360       5164.73
        17380       5164.67
        17400       5164.61
        17420       5164.55
        17440       5164.49
        17460       5164.43
        17480       5164.37
        17500       5164.31
        17520       5164.25
        17540       5164.19
        17560       5164.13
        17580       5164.07
        17600       5164.01
        17620       5163.94
        17640       5163.88
        17660       5163.82
        17680       5163.76
        17700       5163.69
        17720       5163.63
        17740       5163.57
        17760        5163.5
        17780       5163.44
        17800       5163.38
        17820       5163.31
        17840       5163.25
        17860       5163.18
        17880       5163.12
        17900       5163.05
        17920       5162.99
        17940       5162.92
        17960       5162.86
        17980       5162.79
        18000       5162.73
        18020       5162.66
        18040       5162.59
        18060       5162.53
        18080       5162.46
        18100       5162.39
        18120       5162.33
        18140       5162.26
        18160       5162.19
        18180       5162.12
        18200       5162.05
        18220       5161.99
        18240       5161.92
        18260       5161.85
        18280       5161.78
        18300       5161.71
        18320       5161.64
        18340       5161.57
        18360        5161.5
        18380       5161.43
        18400       5161.36
        18420       5161.29
        18440       5161.22
        18460       5161.15
        18480       5161.07
        18500          5161
        18520       5160.93
        18540       5160.86
        18560       5160.79
        18580       5160.71
        18600       5160.64
        18620       5160.57
        18640       5160.49
        18660       5160.42
        18680       5160.35
        18700       5160.27
        18720        5160.2
        18740       5160.12
        18760       5160.05
        18780       5159.98
        18800        5159.9
        18820       5159.82
        18840       5159.75
        18860       5159.67
        18880        5159.6
        18900       5159.52
        18920       5159.44
        18940       5159.37
        18960       5159.29
        18980       5159.21
        19000       5159.14
        19020       5159.06
        19040       5158.98
        19060        5158.9
        19080       5158.82
        19100       5158.74
        19120       5158.66
        19140       5158.59
        19160       5158.51
        19180       5158.43
        19200       5158.35
        19220       5158.27
        19240       5158.18
        19260        5158.1
        19280       5158.02
        19300       5157.94
        19320       5157.86
        19340       5157.78
        19360        5157.7
        19380       5157.61
        19400       5157.53
        19420       5157.45
        19440       5157.37
        19460       5157.28
        19480        5157.2
        19500       5157.11
        19520       5157.03
        19540       5156.95
        19560       5156.86
        19580       5156.78
        19600       5156.69
        19620       5156.61
        19640       5156.52
        19660       5156.43
        19680       5156.35
        19700       5156.26
        19720       5156.18
        19740       5156.09
        19760          5156
        19780       5155.91
        19800       5155.83
        19820       5155.74
        19840       5155.65
        19860       5155.56
        19880       5155.47
        19900       5155.38
        19920       5155.29
        19940        5155.2
        19960       5155.11
        19980       5155.02
        20000       5154.93
        20020       5154.84
        20040       5154.75
        20060       5154.66
        20080       5154.57
        20100       5154.48
        20120       5154.39
        20140       5154.29
        20160        5154.2
        20180       5154.11
        20200       5154.01
        20220       5153.92
        20240       5153.83
        20260       5153.73
        20280       5153.64
        20300       5153.55
        20320       5153.45
        20340       5153.36
        20360       5153.26
        20380       5153.16
        20400       5153.07
        20420       5152.97
        20440       5152.88
        20460       5152.78
        20480       5152.68
        20500       5152.58
        20520       5152.49
        20540       5152.39
        20560       5152.29
        20580       5152.19
        20600       5152.09
        20620       5151.99
        20640        5151.9
        20660        5151.8
        20680        5151.7
        20700        5151.6
        20720        5151.5
        20740       5151.39
        20760       5151.29
        20780       5151.19
        20800       5151.09
        20820       5150.99
        20840       5150.89
        20860       5150.78
        20880       5150.68
        20900       5150.58
        20920       5150.47
        20940       5150.37
        20960       5150.27
        20980       5150.16
        21000       5150.06
        21020       5149.95
        21040       5149.85
        21060       5149.74
        21080       5149.64
        21100       5149.53
        21120       5149.42
        21140       5149.32
        21160       5149.21
        21180        5149.1
        21200          5149
        21220       5148.89
        21240       5148.78
        21260       5148.67
        21280       5148.56
        21300       5148.45
        21320       5148.34
        21340       5148.23
        21360       5148.12