0.000000e+00 
1.250000e+03 
2.500000e+03 
3.750000e+03 
5.000000e+03 
6.250000e+03 
7.500000e+03 
8.750000e+03 
1.000000e+04 
1.078692e+04 
1.157384e+04 
1.236076e+04 
1.314768e+04 
1.393460e+04 
1.472152e+04 
1.550844e+04 
1.629536e+04 
1.707066e+04 
1.784596e+04 
1.862126e+04 
1.939656e+04 
2.030115e+04 
2.120574e+04 
2.211033e+04 
2.301493e+04 
2.391952e+04 
2.482411e+04 
2.572870e+04 
2.663329e+04 
2.788329e+04 
2.913329e+04 
3.038329e+04 
3.163329e+04 
3.288329e+04 
3.413329e+04 
3.538329e+04 
3.663329e+04 
3.788329e+04 
3.913329e+04 
4.038329e+04 
4.163329e+04 
4.288329e+04 
4.413329e+04 
4.538329e+04 
4.663329e+04 
4.747497e+04 
4.831664e+04 
4.915832e+04 
5.000000e+04 
