# Probe 0 (0.05 0.05 0.005)
#       Probe             0
#        Time
         4179    0.00561312
         4180    0.00561801
         4181     0.0056229
         4182    0.00562779
         4183    0.00563269
         4184    0.00563759
         4185    0.00564249
         4186    0.00564739
         4187     0.0056523
         4188    0.00565721
         4189    0.00566212
         4190    0.00566704
         4191    0.00567196
         4192    0.00567688
         4193     0.0056818
         4194    0.00568673
         4195    0.00569165
         4196    0.00569659
         4197    0.00570152
         4198    0.00570646
         4199    0.00571139
         4200    0.00571634
         4201    0.00572128
         4202    0.00572623
         4203    0.00573118
         4204    0.00573613
         4205    0.00574108
         4206    0.00574604
         4207      0.005751
         4208    0.00575596
         4209    0.00576093
         4210     0.0057659
         4211    0.00577087
         4212    0.00577584
         4213    0.00578082
         4214     0.0057858
         4215    0.00579078
         4216    0.00579576
         4217    0.00580075
         4218    0.00580574
         4219    0.00581073
         4220    0.00581572
         4221    0.00582072
         4222    0.00582572
         4223    0.00583072
         4224    0.00583573
         4225    0.00584074
         4226    0.00584575
         4227    0.00585076
         4228    0.00585577
         4229    0.00586079
         4230    0.00586581
         4231    0.00587084
         4232    0.00587586
         4233    0.00588089
         4234    0.00588592
         4235    0.00589096
         4236      0.005896
         4237    0.00590103
         4238    0.00590608
         4239    0.00591112
         4240    0.00591617
         4241    0.00592122
         4242    0.00592627
         4243    0.00593133
         4244    0.00593639
         4245    0.00594145
         4246    0.00594651
         4247    0.00595158
         4248    0.00595664
         4249    0.00596172
         4250    0.00596679
         4251    0.00597187
         4252    0.00597695
         4253    0.00598203
         4254    0.00598711
         4255     0.0059922
         4256    0.00599729
         4257    0.00600238
         4258    0.00600748
         4259    0.00601257
         4260    0.00601767
         4261    0.00602278
         4262    0.00602788
         4263    0.00603299
         4264     0.0060381
         4265    0.00604322
         4266    0.00604833
         4267    0.00605345
         4268    0.00605857
         4269     0.0060637
         4270    0.00606882
         4271    0.00607395
         4272    0.00607908
         4273    0.00608422
         4274    0.00608936
         4275     0.0060945
         4276    0.00609964
         4277    0.00610478
         4278    0.00610993
         4279    0.00611508
         4280    0.00612024
         4281    0.00612539
         4282    0.00613055
         4283    0.00613571
         4284    0.00614088
         4285    0.00614604
         4286    0.00615121
         4287    0.00615638
         4288    0.00616156
         4289    0.00616673
         4290    0.00617191
         4291     0.0061771
         4292    0.00618228
         4293    0.00618747
         4294    0.00619266
         4295    0.00619785
         4296    0.00620305
         4297    0.00620824
         4298    0.00621345
         4299    0.00621865
         4300    0.00622385
         4301    0.00622906
         4302    0.00623427
         4303    0.00623949
         4304     0.0062447
         4305    0.00624992
         4306    0.00625515
         4307    0.00626037
         4308     0.0062656
         4309    0.00627083
         4310    0.00627606
         4311    0.00628129
         4312    0.00628653
         4313    0.00629177
         4314    0.00629702
         4315    0.00630226
         4316    0.00630751
         4317    0.00631276
         4318    0.00631801
         4319    0.00632327
         4320    0.00632853
         4321    0.00633379
         4322    0.00633905
         4323    0.00634432
         4324    0.00634959
         4325    0.00635486
         4326    0.00636014
         4327    0.00636541
         4328    0.00637069
         4329    0.00637598
         4330    0.00638126
         4331    0.00638655
         4332    0.00639184
         4333    0.00639713
         4334    0.00640243
         4335    0.00640773
         4336    0.00641303
         4337    0.00641833
         4338    0.00642364
         4339    0.00642894
         4340    0.00643426
         4341    0.00643957
         4342    0.00644489
         4343    0.00645021
         4344    0.00645553
         4345    0.00646085
         4346    0.00646618
         4347    0.00647151
         4348    0.00647684
         4349    0.00648218
         4350    0.00648752
         4351    0.00649286
         4352     0.0064982
         4353    0.00650354
         4354    0.00650889
         4355    0.00651424
         4356     0.0065196
         4357    0.00652495
         4358    0.00653031
         4359    0.00653567
         4360    0.00654104
         4361     0.0065464
         4362    0.00655177
         4363    0.00655714
         4364    0.00656252
         4365     0.0065679
         4366    0.00657328
         4367    0.00657866
         4368    0.00658404
         4369    0.00658943
         4370    0.00659482
         4371    0.00660021
         4372    0.00660561
         4373    0.00661101
         4374    0.00661641
         4375    0.00662181
         4376    0.00662722
         4377    0.00663263
         4378    0.00663804
         4379    0.00664345
         4380    0.00664887
         4381    0.00665429
         4382    0.00665971
         4383    0.00666513
         4384    0.00667056
         4385    0.00667599
         4386    0.00668142
         4387    0.00668686
         4388    0.00669229
         4389    0.00669773
         4390    0.00670318
         4391    0.00670862
         4392    0.00671407
         4393    0.00671952
         4394    0.00672497
         4395    0.00673043
         4396    0.00673589
         4397    0.00674135
         4398    0.00674681
         4399    0.00675228
         4400    0.00675775
         4401    0.00676322
         4402    0.00676869
         4403    0.00677417
         4404    0.00677965
         4405    0.00678513
         4406    0.00679061
         4407     0.0067961
         4408    0.00680159
         4409    0.00680708
         4410    0.00681258
         4411    0.00681808
         4412    0.00682358
         4413    0.00682908
         4414    0.00683458
         4415    0.00684009
         4416     0.0068456
         4417    0.00685112
         4418    0.00685663
         4419    0.00686215
         4420    0.00686767
         4421    0.00687319
         4422    0.00687872
         4423    0.00688425
         4424    0.00688978
         4425    0.00689532
         4426    0.00690085
         4427    0.00690639
         4428    0.00691193
         4429    0.00691748
         4430    0.00692303
         4431    0.00692857
         4432    0.00693413
         4433    0.00693968
         4434    0.00694524
         4435     0.0069508
         4436    0.00695636
         4437    0.00696193
         4438     0.0069675
         4439    0.00697307
         4440    0.00697864
         4441    0.00698422
         4442    0.00698979
         4443    0.00699537
         4444    0.00700096
         4445    0.00700654
         4446    0.00701213
         4447    0.00701772
         4448    0.00702332
         4449    0.00702891
         4450    0.00703451
         4451    0.00704012
         4452    0.00704572
         4453    0.00705133
         4454    0.00705694
         4455    0.00706255
         4456    0.00706816
         4457    0.00707378
         4458     0.0070794
         4459    0.00708502
         4460    0.00709065
         4461    0.00709628
         4462    0.00710191
         4463    0.00710754
         4464    0.00711317
         4465    0.00711881
         4466    0.00712445
         4467     0.0071301
         4468    0.00713574
         4469    0.00714139
         4470    0.00714704
         4471     0.0071527
         4472    0.00715835
         4473    0.00716401
         4474    0.00716967
         4475    0.00717534
         4476      0.007181
         4477    0.00718667
         4478    0.00719234
         4479    0.00719802
         4480    0.00720369
         4481    0.00720937
         4482    0.00721506
         4483    0.00722074
         4484    0.00722643
         4485    0.00723212
         4486    0.00723781
         4487     0.0072435
         4488     0.0072492
         4489     0.0072549
         4490    0.00726061
         4491    0.00726631
         4492    0.00727202
         4493    0.00727773
         4494    0.00728344
         4495    0.00728916
         4496    0.00729488
         4497     0.0073006
         4498    0.00730632
         4499    0.00731205
         4500    0.00731777
         4501    0.00732351
         4502    0.00732924
         4503    0.00733498
         4504    0.00734071
         4505    0.00734646
         4506     0.0073522
         4507    0.00735795
         4508    0.00736369
         4509    0.00736945
         4510     0.0073752
         4511    0.00738096
         4512    0.00738672
         4513    0.00739248
         4514    0.00739824
         4515    0.00740401
         4516    0.00740978
         4517    0.00741555
         4518    0.00742133
         4519     0.0074271
         4520    0.00743288
         4521    0.00743867
         4522    0.00744445
         4523    0.00745024
         4524    0.00745603
         4525    0.00746182
         4526    0.00746762
         4527    0.00747342
         4528    0.00747922
         4529    0.00748502
         4530    0.00749083
         4531    0.00749663
         4532    0.00750244
         4533    0.00750826
         4534    0.00751407
         4535    0.00751989
         4536    0.00752571
         4537    0.00753154
         4538    0.00753736
         4539    0.00754319
         4540    0.00754902
         4541    0.00755486
         4542    0.00756069
         4543    0.00756653
         4544    0.00757237
         4545    0.00757822
         4546    0.00758406
         4547    0.00758991
         4548    0.00759576
         4549    0.00760162
         4550    0.00760747
         4551    0.00761333
         4552    0.00761919
         4553    0.00762506
         4554    0.00763093
         4555     0.0076368
         4556    0.00764267
         4557    0.00764854
         4558    0.00765442
         4559     0.0076603
         4560    0.00766618
         4561    0.00767207
         4562    0.00767795
         4563    0.00768384
         4564    0.00768974
         4565    0.00769563
         4566    0.00770153
         4567    0.00770743
         4568    0.00771333
         4569    0.00771924
         4570    0.00772514
         4571    0.00773105
         4572    0.00773697
         4573    0.00774288
         4574     0.0077488
         4575    0.00775472
         4576    0.00776064
         4577    0.00776657
         4578     0.0077725
         4579    0.00777843
         4580    0.00778436
         4581    0.00779029
         4582    0.00779623
         4583    0.00780217
         4584    0.00780812
         4585    0.00781406
         4586    0.00782001
         4587    0.00782596
         4588    0.00783191
         4589    0.00783787
         4590    0.00784383
         4591    0.00784979
         4592    0.00785575
         4593    0.00786172
         4594    0.00786769
         4595    0.00787366
         4596    0.00787963
         4597    0.00788561
         4598    0.00789159
         4599    0.00789757
         4600    0.00790355
         4601    0.00790954
         4602    0.00791552
         4603    0.00792152
         4604    0.00792751
         4605    0.00793351
         4606     0.0079395
         4607    0.00794551
         4608    0.00795151
         4609    0.00795751
         4610    0.00796352
         4611    0.00796953
         4612    0.00797555
         4613    0.00798157
         4614    0.00798758
         4615    0.00799361
         4616    0.00799963
         4617    0.00800566
         4618    0.00801168
         4619    0.00801772
         4620    0.00802375
         4621    0.00802979
         4622    0.00803582
         4623    0.00804187
         4624    0.00804791
         4625    0.00805396
         4626    0.00806001
         4627    0.00806606
         4628    0.00807211
         4629    0.00807817
         4630    0.00808423
         4631    0.00809029
         4632    0.00809635
         4633    0.00810242
         4634    0.00810849
         4635    0.00811456
         4636    0.00812063
         4637    0.00812671
         4638    0.00813279
         4639    0.00813887
         4640    0.00814495
         4641    0.00815104
         4642    0.00815713
         4643    0.00816322
         4644    0.00816931
         4645    0.00817541
         4646    0.00818151
         4647    0.00818761
         4648    0.00819371
         4649    0.00819982
         4650    0.00820593
         4651    0.00821204
         4652    0.00821815
         4653    0.00822427
         4654    0.00823039
         4655    0.00823651
         4656    0.00824263
         4657    0.00824876
         4658    0.00825489
         4659    0.00826102
         4660    0.00826715
         4661    0.00827329
         4662    0.00827943
         4663    0.00828557
         4664    0.00829171
         4665    0.00829786
         4666    0.00830401
         4667    0.00831016
         4668    0.00831631
         4669    0.00832247
         4670    0.00832863
         4671    0.00833479
         4672    0.00834095
         4673    0.00834712
         4674    0.00835329
         4675    0.00835946
         4676    0.00836563
         4677    0.00837181
         4678    0.00837798
         4679    0.00838416
         4680    0.00839035
         4681    0.00839653
         4682    0.00840272
         4683    0.00840891
         4684    0.00841511
         4685     0.0084213
         4686     0.0084275
         4687     0.0084337
         4688     0.0084399
         4689    0.00844611
         4690    0.00845231
         4691    0.00845853
         4692    0.00846474
         4693    0.00847095
         4694    0.00847717
         4695    0.00848339
         4696    0.00848961
         4697    0.00849584
         4698    0.00850207
         4699     0.0085083
         4700    0.00851453
         4701    0.00852076
         4702      0.008527
         4703    0.00853324
         4704    0.00853948
         4705    0.00854573
         4706    0.00855197
         4707    0.00855822
         4708    0.00856448
         4709    0.00857073
         4710    0.00857699
         4711    0.00858325
         4712    0.00858951
         4713    0.00859577
         4714    0.00860204
         4715    0.00860831
         4716    0.00861458
         4717    0.00862085
         4718    0.00862713
         4719    0.00863341
         4720    0.00863969
         4721    0.00864597
         4722    0.00865226
         4723    0.00865855
         4724    0.00866484
         4725    0.00867113
         4726    0.00867743
         4727    0.00868373
         4728    0.00869003
         4729    0.00869633
         4730    0.00870264
         4731    0.00870894
         4732    0.00871525
         4733    0.00872157
         4734    0.00872788
         4735     0.0087342
         4736    0.00874052
         4737    0.00874684
         4738    0.00875317
         4739    0.00875949
         4740    0.00876582
         4741    0.00877216
         4742    0.00877849
         4743    0.00878483
         4744    0.00879117
         4745    0.00879751
         4746    0.00880385
         4747     0.0088102
         4748    0.00881655
         4749     0.0088229
         4750    0.00882925
         4751    0.00883561
         4752    0.00884197
         4753    0.00884833
         4754    0.00885469
         4755    0.00886106
         4756    0.00886743
         4757     0.0088738
         4758    0.00888017
         4759    0.00888655
         4760    0.00889293
         4761    0.00889931
         4762    0.00890569
         4763    0.00891208
         4764    0.00891846
         4765    0.00892485
         4766    0.00893125
         4767    0.00893764
         4768    0.00894404
         4769    0.00895044
         4770    0.00895684
         4771    0.00896324
         4772    0.00896965
         4773    0.00897606
         4774    0.00898247
         4775    0.00898888
         4776     0.0089953
         4777    0.00900172
         4778    0.00900814
         4779    0.00901456
         4780    0.00902099
         4781    0.00902742
         4782    0.00903385
         4783    0.00904028
         4784    0.00904672
         4785    0.00905315
         4786    0.00905959
         4787    0.00906604
         4788    0.00907248
         4789    0.00907893
         4790    0.00908538
         4791    0.00909183
         4792    0.00909829
         4793    0.00910474
         4794     0.0091112
         4795    0.00911766
         4796    0.00912413
         4797    0.00913059
         4798    0.00913706
         4799    0.00914353
         4800    0.00915001
         4801    0.00915648
         4802    0.00916296
         4803    0.00916944
         4804    0.00917592
         4805    0.00918241
         4806     0.0091889
         4807    0.00919539
         4808    0.00920188
         4809    0.00920837
         4810    0.00921487
         4811    0.00922137
         4812    0.00922787
         4813    0.00923437
         4814    0.00924088
         4815    0.00924739
         4816     0.0092539
         4817    0.00926041
         4818    0.00926693
         4819    0.00927345
         4820    0.00927997
         4821    0.00928649
         4822    0.00929302
         4823    0.00929954
         4824    0.00930607
         4825    0.00931261
         4826    0.00931914
         4827    0.00932568
         4828    0.00933222
         4829    0.00933876
         4830     0.0093453
         4831    0.00935185
         4832     0.0093584
         4833    0.00936495
         4834     0.0093715
         4835    0.00937806
         4836    0.00938461
         4837    0.00939117
         4838    0.00939774
         4839     0.0094043
         4840    0.00941087
         4841    0.00941744
         4842    0.00942401
         4843    0.00943058
         4844    0.00943716
         4845    0.00944374
         4846    0.00945032
         4847     0.0094569
         4848    0.00946349
         4849    0.00947008
         4850    0.00947667
         4851    0.00948326
         4852    0.00948986
         4853    0.00949645
         4854    0.00950305
         4855    0.00950965
         4856    0.00951626
         4857    0.00952287
         4858    0.00952947
         4859    0.00953609
         4860     0.0095427
         4861    0.00954932
         4862    0.00955593
         4863    0.00956255
         4864    0.00956918
         4865     0.0095758
         4866    0.00958243
         4867    0.00958906
         4868    0.00959569
         4869    0.00960232
         4870    0.00960896
         4871     0.0096156
         4872    0.00962224
         4873    0.00962888
         4874    0.00963553
         4875    0.00964218
         4876    0.00964883
         4877    0.00965548
         4878    0.00966214
         4879    0.00966879
         4880    0.00967545
         4881    0.00968211
         4882    0.00968878
         4883    0.00969544
         4884    0.00970211
         4885    0.00970878
         4886    0.00971546
         4887    0.00972213
         4888    0.00972881
         4889    0.00973549
         4890    0.00974217
         4891    0.00974886
         4892    0.00975554
         4893    0.00976223
         4894    0.00976892
         4895    0.00977562
         4896    0.00978231
         4897    0.00978901
         4898    0.00979571
         4899    0.00980241
         4900    0.00980912
         4901    0.00981583
         4902    0.00982253
         4903    0.00982925
         4904    0.00983596
         4905    0.00984268
         4906     0.0098494
         4907    0.00985612
         4908    0.00986284
         4909    0.00986956
         4910    0.00987629
         4911    0.00988302
         4912    0.00988975
         4913    0.00989649
         4914    0.00990322
         4915    0.00990996
         4916     0.0099167
         4917    0.00992345
         4918    0.00993019
         4919    0.00993694
         4920    0.00994369
         4921    0.00995044
         4922     0.0099572
         4923    0.00996395
         4924    0.00997071
         4925    0.00997747
         4926    0.00998424
         4927      0.009991
         4928    0.00999777
         4929     0.0100045
         4930     0.0100113
         4931     0.0100181
         4932     0.0100249
         4933     0.0100316
         4934     0.0100384
         4935     0.0100452
         4936      0.010052
         4937     0.0100588
         4938     0.0100656
         4939     0.0100724
         4940     0.0100792
         4941      0.010086
         4942     0.0100928
         4943     0.0100996
         4944     0.0101064
         4945     0.0101132
         4946       0.01012
         4947     0.0101268
         4948     0.0101336
         4949     0.0101404
         4950     0.0101472
         4951      0.010154
         4952     0.0101609
         4953     0.0101677
         4954     0.0101745
         4955     0.0101813
         4956     0.0101882
         4957      0.010195
         4958     0.0102018
         4959     0.0102087
         4960     0.0102155
         4961     0.0102224
         4962     0.0102292
         4963      0.010236
         4964     0.0102429
         4965     0.0102497
         4966     0.0102566
         4967     0.0102634
         4968     0.0102703
         4969     0.0102772
         4970      0.010284
         4971     0.0102909
         4972     0.0102977
         4973     0.0103046
         4974     0.0103115
         4975     0.0103184
         4976     0.0103252
         4977     0.0103321
         4978      0.010339
         4979     0.0103459
         4980     0.0103527
         4981     0.0103596
         4982     0.0103665
         4983     0.0103734
         4984     0.0103803
         4985     0.0103872
         4986     0.0103941
         4987      0.010401
         4988     0.0104079
         4989     0.0104148
         4990     0.0104217
         4991     0.0104286
         4992     0.0104355
         4993     0.0104424
         4994     0.0104493
         4995     0.0104562
         4996     0.0104632
         4997     0.0104701
         4998      0.010477
         4999     0.0104839
         5000     0.0104908
         5001     0.0104978
         5002     0.0105047
         5003     0.0105116
         5004     0.0105186
         5005     0.0105255
         5006     0.0105324
         5007     0.0105394
         5008     0.0105463
         5009     0.0105533
         5010     0.0105602
         5011     0.0105672
         5012     0.0105741
         5013     0.0105811
         5014      0.010588
         5015      0.010595
         5016     0.0106019
         5017     0.0106089
         5018     0.0106159
         5019     0.0106228
         5020     0.0106298
         5021     0.0106368
         5022     0.0106437
         5023     0.0106507
         5024     0.0106577
         5025     0.0106647
         5026     0.0106716
         5027     0.0106786
         5028     0.0106856
         5029     0.0106926
         5030     0.0106996
         5031     0.0107066
         5032     0.0107136
         5033     0.0107206
         5034     0.0107276
         5035     0.0107346
         5036     0.0107416
         5037     0.0107486
         5038     0.0107556
         5039     0.0107626
         5040     0.0107696
         5041     0.0107766
         5042     0.0107836
         5043     0.0107906
         5044     0.0107977
         5045     0.0108047
         5046     0.0108117
         5047     0.0108187
         5048     0.0108258
         5049     0.0108328
         5050     0.0108398
         5051     0.0108468
         5052     0.0108539
         5053     0.0108609
         5054      0.010868
         5055      0.010875
         5056      0.010882
         5057     0.0108891
         5058     0.0108961
         5059     0.0109032
         5060     0.0109102
         5061     0.0109173
         5062     0.0109243
         5063     0.0109314
         5064     0.0109385
         5065     0.0109455
         5066     0.0109526
         5067     0.0109597
         5068     0.0109667
         5069     0.0109738
         5070     0.0109809
         5071     0.0109879
         5072      0.010995
         5073     0.0110021
         5074     0.0110092
         5075     0.0110163
         5076     0.0110233
         5077     0.0110304
         5078     0.0110375
         5079     0.0110446
         5080     0.0110517
         5081     0.0110588
         5082     0.0110659
         5083      0.011073
         5084     0.0110801
         5085     0.0110872
         5086     0.0110943
         5087     0.0111014
         5088     0.0111085
         5089     0.0111156
         5090     0.0111227
         5091     0.0111299
         5092      0.011137
         5093     0.0111441
         5094     0.0111512
         5095     0.0111583
         5096     0.0111655
         5097     0.0111726
         5098     0.0111797
         5099     0.0111869
         5100      0.011194
         5101     0.0112011
         5102     0.0112083
         5103     0.0112154
         5104     0.0112225
         5105     0.0112297
         5106     0.0112368
         5107      0.011244
         5108     0.0112511
         5109     0.0112583
         5110     0.0112654
         5111     0.0112726
         5112     0.0112797
         5113     0.0112869
         5114     0.0112941
         5115     0.0113012
         5116     0.0113084
         5117     0.0113156
         5118     0.0113227
         5119     0.0113299
         5120     0.0113371
         5121     0.0113442
         5122     0.0113514
         5123     0.0113586
         5124     0.0113658
         5125      0.011373
         5126     0.0113801
         5127     0.0113873
         5128     0.0113945
         5129     0.0114017
         5130     0.0114089
         5131     0.0114161
         5132     0.0114233
         5133     0.0114305
         5134     0.0114377
         5135     0.0114449
         5136     0.0114521
         5137     0.0114593
         5138     0.0114665
         5139     0.0114737
         5140     0.0114809
         5141     0.0114882
         5142     0.0114954
         5143     0.0115026
         5144     0.0115098
         5145      0.011517
         5146     0.0115243
         5147     0.0115315
         5148     0.0115387
         5149     0.0115459
         5150     0.0115532
         5151     0.0115604
         5152     0.0115676
         5153     0.0115749
         5154     0.0115821
         5155     0.0115894
         5156     0.0115966
         5157     0.0116039
         5158     0.0116111
         5159     0.0116184
         5160     0.0116256
         5161     0.0116329
         5162     0.0116401
         5163     0.0116474
         5164     0.0116546
         5165     0.0116619
         5166     0.0116692
         5167     0.0116764
         5168     0.0116837
         5169     0.0116909
         5170     0.0116982
         5171     0.0117055
         5172     0.0117128
         5173       0.01172
         5174     0.0117273
         5175     0.0117346
         5176     0.0117419
         5177     0.0117492
         5178     0.0117565
         5179     0.0117637
         5180      0.011771
         5181     0.0117783
         5182     0.0117856
         5183     0.0117929
         5184     0.0118002
         5185     0.0118075
         5186     0.0118148
         5187     0.0118221
         5188     0.0118294
         5189     0.0118367
         5190      0.011844
         5191     0.0118513
         5192     0.0118586
         5193      0.011866
         5194     0.0118733
         5195     0.0118806
         5196     0.0118879
         5197     0.0118952
         5198     0.0119026
         5199     0.0119099
         5200     0.0119172
         5201     0.0119245
         5202     0.0119319
         5203     0.0119392
         5204     0.0119465
         5205     0.0119539
         5206     0.0119612
         5207     0.0119686
         5208     0.0119759
         5209     0.0119832
         5210     0.0119906
         5211     0.0119979
         5212     0.0120053
         5213     0.0120126
         5214       0.01202
         5215     0.0120273
         5216     0.0120347
         5217     0.0120421
         5218     0.0120494
         5219     0.0120568
         5220     0.0120641
         5221     0.0120715
         5222     0.0120789
         5223     0.0120862
         5224     0.0120936
         5225      0.012101
         5226     0.0121084
         5227     0.0121157
         5228     0.0121231
         5229     0.0121305
         5230     0.0121379
         5231     0.0121453
         5232     0.0121526
         5233       0.01216
         5234     0.0121674
         5235     0.0121748
         5236     0.0121822
         5237     0.0121896
         5238      0.012197
         5239     0.0122044
         5240     0.0122118
         5241     0.0122192
         5242     0.0122266
         5243      0.012234
         5244     0.0122414
         5245     0.0122488
         5246     0.0122562