# Probe 0 (0.05 0.05 0.005)
#       Probe             0
#        Time
         4179     0.0343869
         4180      0.034382
         4181     0.0343771
         4182     0.0343722
         4183     0.0343673
         4184     0.0343624
         4185     0.0343575
         4186     0.0343526
         4187     0.0343477
         4188     0.0343428
         4189     0.0343379
         4190      0.034333
         4191     0.0343281
         4192     0.0343231
         4193     0.0343182
         4194     0.0343133
         4195     0.0343084
         4196     0.0343034
         4197     0.0342985
         4198     0.0342936
         4199     0.0342886
         4200     0.0342837
         4201     0.0342787
         4202     0.0342738
         4203     0.0342688
         4204     0.0342639
         4205     0.0342589
         4206      0.034254
         4207      0.034249
         4208     0.0342441
         4209     0.0342391
         4210     0.0342341
         4211     0.0342291
         4212     0.0342242
         4213     0.0342192
         4214     0.0342142
         4215     0.0342092
         4216     0.0342043
         4217     0.0341993
         4218     0.0341943
         4219     0.0341893
         4220     0.0341843
         4221     0.0341793
         4222     0.0341743
         4223     0.0341693
         4224     0.0341643
         4225     0.0341593
         4226     0.0341543
         4227     0.0341493
         4228     0.0341442
         4229     0.0341392
         4230     0.0341342
         4231     0.0341292
         4232     0.0341242
         4233     0.0341191
         4234     0.0341141
         4235     0.0341091
         4236      0.034104
         4237      0.034099
         4238     0.0340939
         4239     0.0340889
         4240     0.0340838
         4241     0.0340788
         4242     0.0340737
         4243     0.0340687
         4244     0.0340636
         4245     0.0340586
         4246     0.0340535
         4247     0.0340484
         4248     0.0340434
         4249     0.0340383
         4250     0.0340332
         4251     0.0340281
         4252     0.0340231
         4253      0.034018
         4254     0.0340129
         4255     0.0340078
         4256     0.0340027
         4257     0.0339976
         4258     0.0339925
         4259     0.0339874
         4260     0.0339823
         4261     0.0339772
         4262     0.0339721
         4263      0.033967
         4264     0.0339619
         4265     0.0339568
         4266     0.0339517
         4267     0.0339466
         4268     0.0339414
         4269     0.0339363
         4270     0.0339312
         4271     0.0339261
         4272     0.0339209
         4273     0.0339158
         4274     0.0339107
         4275     0.0339055
         4276     0.0339004
         4277     0.0338952
         4278     0.0338901
         4279     0.0338849
         4280     0.0338798
         4281     0.0338746
         4282     0.0338695
         4283     0.0338643
         4284     0.0338591
         4285      0.033854
         4286     0.0338488
         4287     0.0338436
         4288     0.0338385
         4289     0.0338333
         4290     0.0338281
         4291     0.0338229
         4292     0.0338177
         4293     0.0338125
         4294     0.0338074
         4295     0.0338022
         4296      0.033797
         4297     0.0337918
         4298     0.0337866
         4299     0.0337814
         4300     0.0337762
         4301      0.033771
         4302     0.0337657
         4303     0.0337605
         4304     0.0337553
         4305     0.0337501
         4306     0.0337449
         4307     0.0337396
         4308     0.0337344
         4309     0.0337292
         4310      0.033724
         4311     0.0337187
         4312     0.0337135
         4313     0.0337082
         4314      0.033703
         4315     0.0336978
         4316     0.0336925
         4317     0.0336873
         4318      0.033682
         4319     0.0336767
         4320     0.0336715
         4321     0.0336662
         4322      0.033661
         4323     0.0336557
         4324     0.0336504
         4325     0.0336452
         4326     0.0336399
         4327     0.0336346
         4328     0.0336293
         4329      0.033624
         4330     0.0336188
         4331     0.0336135
         4332     0.0336082
         4333     0.0336029
         4334     0.0335976
         4335     0.0335923
         4336      0.033587
         4337     0.0335817
         4338     0.0335764
         4339     0.0335711
         4340     0.0335658
         4341     0.0335604
         4342     0.0335551
         4343     0.0335498
         4344     0.0335445
         4345     0.0335392
         4346     0.0335338
         4347     0.0335285
         4348     0.0335232
         4349     0.0335178
         4350     0.0335125
         4351     0.0335072
         4352     0.0335018
         4353     0.0334965
         4354     0.0334911
         4355     0.0334858
         4356     0.0334804
         4357     0.0334751
         4358     0.0334697
         4359     0.0334643
         4360      0.033459
         4361     0.0334536
         4362     0.0334482
         4363     0.0334429
         4364     0.0334375
         4365     0.0334321
         4366     0.0334267
         4367     0.0334214
         4368      0.033416
         4369     0.0334106
         4370     0.0334052
         4371     0.0333998
         4372     0.0333944
         4373      0.033389
         4374     0.0333836
         4375     0.0333782
         4376     0.0333728
         4377     0.0333674
         4378      0.033362
         4379     0.0333566
         4380     0.0333511
         4381     0.0333457
         4382     0.0333403
         4383     0.0333349
         4384     0.0333295
         4385      0.033324
         4386     0.0333186
         4387     0.0333132
         4388     0.0333077
         4389     0.0333023
         4390     0.0332968
         4391     0.0332914
         4392     0.0332859
         4393     0.0332805
         4394      0.033275
         4395     0.0332696
         4396     0.0332641
         4397     0.0332587
         4398     0.0332532
         4399     0.0332477
         4400     0.0332423
         4401     0.0332368
         4402     0.0332313
         4403     0.0332258
         4404     0.0332204
         4405     0.0332149
         4406     0.0332094
         4407     0.0332039
         4408     0.0331984
         4409     0.0331929
         4410     0.0331874
         4411     0.0331819
         4412     0.0331764
         4413     0.0331709
         4414     0.0331654
         4415     0.0331599
         4416     0.0331544
         4417     0.0331489
         4418     0.0331434
         4419     0.0331379
         4420     0.0331323
         4421     0.0331268
         4422     0.0331213
         4423     0.0331158
         4424     0.0331102
         4425     0.0331047
         4426     0.0330992
         4427     0.0330936
         4428     0.0330881
         4429     0.0330825
         4430      0.033077
         4431     0.0330714
         4432     0.0330659
         4433     0.0330603
         4434     0.0330548
         4435     0.0330492
         4436     0.0330437
         4437     0.0330381
         4438     0.0330325
         4439     0.0330269
         4440     0.0330214
         4441     0.0330158
         4442     0.0330102
         4443     0.0330046
         4444     0.0329991
         4445     0.0329935
         4446     0.0329879
         4447     0.0329823
         4448     0.0329767
         4449     0.0329711
         4450     0.0329655
         4451     0.0329599
         4452     0.0329543
         4453     0.0329487
         4454     0.0329431
         4455     0.0329375
         4456     0.0329319
         4457     0.0329262
         4458     0.0329206
         4459      0.032915
         4460     0.0329094
         4461     0.0329037
         4462     0.0328981
         4463     0.0328925
         4464     0.0328868
         4465     0.0328812
         4466     0.0328756
         4467     0.0328699
         4468     0.0328643
         4469     0.0328586
         4470      0.032853
         4471     0.0328473
         4472     0.0328417
         4473      0.032836
         4474     0.0328303
         4475     0.0328247
         4476      0.032819
         4477     0.0328133
         4478     0.0328077
         4479      0.032802
         4480     0.0327963
         4481     0.0327906
         4482      0.032785
         4483     0.0327793
         4484     0.0327736
         4485     0.0327679
         4486     0.0327622
         4487     0.0327565
         4488     0.0327508
         4489     0.0327451
         4490     0.0327394
         4491     0.0327337
         4492      0.032728
         4493     0.0327223
         4494     0.0327166
         4495     0.0327109
         4496     0.0327051
         4497     0.0326994
         4498     0.0326937
         4499      0.032688
         4500     0.0326822
         4501     0.0326765
         4502     0.0326708
         4503      0.032665
         4504     0.0326593
         4505     0.0326536
         4506     0.0326478
         4507     0.0326421
         4508     0.0326363
         4509     0.0326306
         4510     0.0326248
         4511     0.0326191
         4512     0.0326133
         4513     0.0326075
         4514     0.0326018
         4515      0.032596
         4516     0.0325902
         4517     0.0325845
         4518     0.0325787
         4519     0.0325729
         4520     0.0325671
         4521     0.0325613
         4522     0.0325556
         4523     0.0325498
         4524      0.032544
         4525     0.0325382
         4526     0.0325324
         4527     0.0325266
         4528     0.0325208
         4529      0.032515
         4530     0.0325092
         4531     0.0325034
         4532     0.0324976
         4533     0.0324918
         4534     0.0324859
         4535     0.0324801
         4536     0.0324743
         4537     0.0324685
         4538     0.0324627
         4539     0.0324568
         4540      0.032451
         4541     0.0324452
         4542     0.0324393
         4543     0.0324335
         4544     0.0324276
         4545     0.0324218
         4546      0.032416
         4547     0.0324101
         4548     0.0324043
         4549     0.0323984
         4550     0.0323925
         4551     0.0323867
         4552     0.0323808
         4553      0.032375
         4554     0.0323691
         4555     0.0323632
         4556     0.0323573
         4557     0.0323515
         4558     0.0323456
         4559     0.0323397
         4560     0.0323338
         4561     0.0323279
         4562     0.0323221
         4563     0.0323162
         4564     0.0323103
         4565     0.0323044
         4566     0.0322985
         4567     0.0322926
         4568     0.0322867
         4569     0.0322808
         4570     0.0322749
         4571      0.032269
         4572      0.032263
         4573     0.0322571
         4574     0.0322512
         4575     0.0322453
         4576     0.0322394
         4577     0.0322334
         4578     0.0322275
         4579     0.0322216
         4580     0.0322157
         4581     0.0322097
         4582     0.0322038
         4583     0.0321978
         4584     0.0321919
         4585      0.032186
         4586       0.03218
         4587     0.0321741
         4588     0.0321681
         4589     0.0321621
         4590     0.0321562
         4591     0.0321502
         4592     0.0321443
         4593     0.0321383
         4594     0.0321323
         4595     0.0321264
         4596     0.0321204
         4597     0.0321144
         4598     0.0321084
         4599     0.0321024
         4600     0.0320965
         4601     0.0320905
         4602     0.0320845
         4603     0.0320785
         4604     0.0320725
         4605     0.0320665
         4606     0.0320605
         4607     0.0320545
         4608     0.0320485
         4609     0.0320425
         4610     0.0320365
         4611     0.0320305
         4612     0.0320245
         4613     0.0320184
         4614     0.0320124
         4615     0.0320064
         4616     0.0320004
         4617     0.0319944
         4618     0.0319883
         4619     0.0319823
         4620     0.0319763
         4621     0.0319702
         4622     0.0319642
         4623     0.0319581
         4624     0.0319521
         4625     0.0319461
         4626       0.03194
         4627      0.031934
         4628     0.0319279
         4629     0.0319218
         4630     0.0319158
         4631     0.0319097
         4632     0.0319037
         4633     0.0318976
         4634     0.0318915
         4635     0.0318855
         4636     0.0318794
         4637     0.0318733
         4638     0.0318672
         4639     0.0318611
         4640     0.0318551
         4641      0.031849
         4642     0.0318429
         4643     0.0318368
         4644     0.0318307
         4645     0.0318246
         4646     0.0318185
         4647     0.0318124
         4648     0.0318063
         4649     0.0318002
         4650     0.0317941
         4651      0.031788
         4652     0.0317819
         4653     0.0317757
         4654     0.0317696
         4655     0.0317635
         4656     0.0317574
         4657     0.0317513
         4658     0.0317451
         4659      0.031739
         4660     0.0317329
         4661     0.0317267
         4662     0.0317206
         4663     0.0317144
         4664     0.0317083
         4665     0.0317022
         4666      0.031696
         4667     0.0316899
         4668     0.0316837
         4669     0.0316775
         4670     0.0316714
         4671     0.0316652
         4672     0.0316591
         4673     0.0316529
         4674     0.0316467
         4675     0.0316406
         4676     0.0316344
         4677     0.0316282
         4678      0.031622
         4679     0.0316158
         4680     0.0316097
         4681     0.0316035
         4682     0.0315973
         4683     0.0315911
         4684     0.0315849
         4685     0.0315787
         4686     0.0315725
         4687     0.0315663
         4688     0.0315601
         4689     0.0315539
         4690     0.0315477
         4691     0.0315415
         4692     0.0315353
         4693     0.0315291
         4694     0.0315228
         4695     0.0315166
         4696     0.0315104
         4697     0.0315042
         4698     0.0314979
         4699     0.0314917
         4700     0.0314855
         4701     0.0314793
         4702      0.031473
         4703     0.0314668
         4704     0.0314605
         4705     0.0314543
         4706      0.031448
         4707     0.0314418
         4708     0.0314355
         4709     0.0314293
         4710      0.031423
         4711     0.0314168
         4712     0.0314105
         4713     0.0314042
         4714      0.031398
         4715     0.0313917
         4716     0.0313854
         4717     0.0313792
         4718     0.0313729
         4719     0.0313666
         4720     0.0313603
         4721      0.031354
         4722     0.0313478
         4723     0.0313415
         4724     0.0313352
         4725     0.0313289
         4726     0.0313226
         4727     0.0313163
         4728       0.03131
         4729     0.0313037
         4730     0.0312974
         4731     0.0312911
         4732     0.0312848
         4733     0.0312784
         4734     0.0312721
         4735     0.0312658
         4736     0.0312595
         4737     0.0312532
         4738     0.0312468
         4739     0.0312405
         4740     0.0312342
         4741     0.0312279
         4742     0.0312215
         4743     0.0312152
         4744     0.0312088
         4745     0.0312025
         4746     0.0311962
         4747     0.0311898
         4748     0.0311835
         4749     0.0311771
         4750     0.0311708
         4751     0.0311644
         4752      0.031158
         4753     0.0311517
         4754     0.0311453
         4755      0.031139
         4756     0.0311326
         4757     0.0311262
         4758     0.0311198
         4759     0.0311135
         4760     0.0311071
         4761     0.0311007
         4762     0.0310943
         4763     0.0310879
         4764     0.0310816
         4765     0.0310752
         4766     0.0310688
         4767     0.0310624
         4768      0.031056
         4769     0.0310496
         4770     0.0310432
         4771     0.0310368
         4772     0.0310304
         4773      0.031024
         4774     0.0310175
         4775     0.0310111
         4776     0.0310047
         4777     0.0309983
         4778     0.0309919
         4779     0.0309855
         4780      0.030979
         4781     0.0309726
         4782     0.0309662
         4783     0.0309597
         4784     0.0309533
         4785     0.0309469
         4786     0.0309404
         4787      0.030934
         4788     0.0309275
         4789     0.0309211
         4790     0.0309146
         4791     0.0309082
         4792     0.0309017
         4793     0.0308953
         4794     0.0308888
         4795     0.0308824
         4796     0.0308759
         4797     0.0308694
         4798      0.030863
         4799     0.0308565
         4800       0.03085
         4801     0.0308435
         4802     0.0308371
         4803     0.0308306
         4804     0.0308241
         4805     0.0308176
         4806     0.0308111
         4807     0.0308046
         4808     0.0307981
         4809     0.0307916
         4810     0.0307851
         4811     0.0307786
         4812     0.0307721
         4813     0.0307656
         4814     0.0307591
         4815     0.0307526
         4816     0.0307461
         4817     0.0307396
         4818     0.0307331
         4819     0.0307266
         4820       0.03072
         4821     0.0307135
         4822      0.030707
         4823     0.0307005
         4824     0.0306939
         4825     0.0306874
         4826     0.0306809
         4827     0.0306743
         4828     0.0306678
         4829     0.0306613
         4830     0.0306547
         4831     0.0306482
         4832     0.0306416
         4833     0.0306351
         4834     0.0306285
         4835      0.030622
         4836     0.0306154
         4837     0.0306088
         4838     0.0306023
         4839     0.0305957
         4840     0.0305891
         4841     0.0305826
         4842      0.030576
         4843     0.0305694
         4844     0.0305629
         4845     0.0305563
         4846     0.0305497
         4847     0.0305431
         4848     0.0305365
         4849     0.0305299
         4850     0.0305233
         4851     0.0305168
         4852     0.0305102
         4853     0.0305036
         4854      0.030497
         4855     0.0304904
         4856     0.0304838
         4857     0.0304771
         4858     0.0304705
         4859     0.0304639
         4860     0.0304573
         4861     0.0304507
         4862     0.0304441
         4863     0.0304375
         4864     0.0304308
         4865     0.0304242
         4866     0.0304176
         4867      0.030411
         4868     0.0304043
         4869     0.0303977
         4870     0.0303911
         4871     0.0303844
         4872     0.0303778
         4873     0.0303711
         4874     0.0303645
         4875     0.0303578
         4876     0.0303512
         4877     0.0303445
         4878     0.0303379
         4879     0.0303312
         4880     0.0303246
         4881     0.0303179
         4882     0.0303112
         4883     0.0303046
         4884     0.0302979
         4885     0.0302912
         4886     0.0302846
         4887     0.0302779
         4888     0.0302712
         4889     0.0302645
         4890     0.0302578
         4891     0.0302512
         4892     0.0302445
         4893     0.0302378
         4894     0.0302311
         4895     0.0302244
         4896     0.0302177
         4897      0.030211
         4898     0.0302043
         4899     0.0301976
         4900     0.0301909
         4901     0.0301842
         4902     0.0301775
         4903     0.0301708
         4904     0.0301641
         4905     0.0301573
         4906     0.0301506
         4907     0.0301439
         4908     0.0301372
         4909     0.0301305
         4910     0.0301237
         4911      0.030117
         4912     0.0301103
         4913     0.0301035
         4914     0.0300968
         4915     0.0300901
         4916     0.0300833
         4917     0.0300766
         4918     0.0300698
         4919     0.0300631
         4920     0.0300563
         4921     0.0300496
         4922     0.0300428
         4923     0.0300361
         4924     0.0300293
         4925     0.0300225
         4926     0.0300158
         4927      0.030009
         4928     0.0300022
         4929     0.0299955
         4930     0.0299887
         4931     0.0299819
         4932     0.0299752
         4933     0.0299684
         4934     0.0299616
         4935     0.0299548
         4936      0.029948
         4937     0.0299412
         4938     0.0299344
         4939     0.0299277
         4940     0.0299209
         4941     0.0299141
         4942     0.0299073
         4943     0.0299005
         4944     0.0298937
         4945     0.0298869
         4946       0.02988
         4947     0.0298732
         4948     0.0298664
         4949     0.0298596
         4950     0.0298528
         4951      0.029846
         4952     0.0298392
         4953     0.0298323
         4954     0.0298255
         4955     0.0298187
         4956     0.0298118
         4957      0.029805
         4958     0.0297982
         4959     0.0297913
         4960     0.0297845
         4961     0.0297777
         4962     0.0297708
         4963      0.029764
         4964     0.0297571
         4965     0.0297503
         4966     0.0297434
         4967     0.0297366
         4968     0.0297297
         4969     0.0297229
         4970      0.029716
         4971     0.0297091
         4972     0.0297023
         4973     0.0296954
         4974     0.0296885
         4975     0.0296817
         4976     0.0296748
         4977     0.0296679
         4978      0.029661
         4979     0.0296542
         4980     0.0296473
         4981     0.0296404
         4982     0.0296335
         4983     0.0296266
         4984     0.0296197
         4985     0.0296128
         4986     0.0296059
         4987      0.029599
         4988     0.0295921
         4989     0.0295852
         4990     0.0295783
         4991     0.0295714
         4992     0.0295645
         4993     0.0295576
         4994     0.0295507
         4995     0.0295438
         4996     0.0295369
         4997     0.0295299
         4998      0.029523
         4999     0.0295161
         5000     0.0295092
         5001     0.0295022
         5002     0.0294953
         5003     0.0294884
         5004     0.0294815
         5005     0.0294745
         5006     0.0294676
         5007     0.0294606
         5008     0.0294537
         5009     0.0294467
         5010     0.0294398
         5011     0.0294329
         5012     0.0294259
         5013      0.029419
         5014      0.029412
         5015      0.029405
         5016     0.0293981
         5017     0.0293911
         5018     0.0293842
         5019     0.0293772
         5020     0.0293702
         5021     0.0293632
         5022     0.0293563
         5023     0.0293493
         5024     0.0293423
         5025     0.0293353
         5026     0.0293284
         5027     0.0293214
         5028     0.0293144
         5029     0.0293074
         5030     0.0293004
         5031     0.0292934
         5032     0.0292864
         5033     0.0292794
         5034     0.0292724
         5035     0.0292654
         5036     0.0292584
         5037     0.0292514
         5038     0.0292444
         5039     0.0292374
         5040     0.0292304
         5041     0.0292234
         5042     0.0292164
         5043     0.0292094
         5044     0.0292024
         5045     0.0291953
         5046     0.0291883
         5047     0.0291813
         5048     0.0291743
         5049     0.0291672
         5050     0.0291602
         5051     0.0291532
         5052     0.0291461
         5053     0.0291391
         5054     0.0291321
         5055      0.029125
         5056      0.029118
         5057     0.0291109
         5058     0.0291039
         5059     0.0290968
         5060     0.0290898
         5061     0.0290827
         5062     0.0290757
         5063     0.0290686
         5064     0.0290615
         5065     0.0290545
         5066     0.0290474
         5067     0.0290404
         5068     0.0290333
         5069     0.0290262
         5070     0.0290191
         5071     0.0290121
         5072      0.029005
         5073     0.0289979
         5074     0.0289908
         5075     0.0289838
         5076     0.0289767
         5077     0.0289696
         5078     0.0289625
         5079     0.0289554
         5080     0.0289483
         5081     0.0289412
         5082     0.0289341
         5083      0.028927
         5084     0.0289199
         5085     0.0289128
         5086     0.0289057
         5087     0.0288986
         5088     0.0288915
         5089     0.0288844
         5090     0.0288773
         5091     0.0288702
         5092      0.028863
         5093     0.0288559
         5094     0.0288488
         5095     0.0288417
         5096     0.0288346
         5097     0.0288274
         5098     0.0288203
         5099     0.0288132
         5100      0.028806
         5101     0.0287989
         5102     0.0287918
         5103     0.0287846
         5104     0.0287775
         5105     0.0287703
         5106     0.0287632
         5107      0.028756
         5108     0.0287489
         5109     0.0287417
         5110     0.0287346
         5111     0.0287274
         5112     0.0287203
         5113     0.0287131
         5114      0.028706
         5115     0.0286988
         5116     0.0286916
         5117     0.0286845
         5118     0.0286773
         5119     0.0286701
         5120     0.0286629
         5121     0.0286558
         5122     0.0286486
         5123     0.0286414
         5124     0.0286342
         5125     0.0286271
         5126     0.0286199
         5127     0.0286127
         5128     0.0286055
         5129     0.0285983
         5130     0.0285911
         5131     0.0285839
         5132     0.0285767
         5133     0.0285695
         5134     0.0285623
         5135     0.0285551
         5136     0.0285479
         5137     0.0285407
         5138     0.0285335
         5139     0.0285263
         5140     0.0285191
         5141     0.0285119
         5142     0.0285046
         5143     0.0284974
         5144     0.0284902
         5145      0.028483
         5146     0.0284758
         5147     0.0284685
         5148     0.0284613
         5149     0.0284541
         5150     0.0284468
         5151     0.0284396
         5152     0.0284324
         5153     0.0284251
         5154     0.0284179
         5155     0.0284106
         5156     0.0284034
         5157     0.0283962
         5158     0.0283889
         5159     0.0283817
         5160     0.0283744
         5161     0.0283672
         5162     0.0283599
         5163     0.0283526
         5164     0.0283454
         5165     0.0283381
         5166     0.0283309
         5167     0.0283236
         5168     0.0283163
         5169     0.0283091
         5170     0.0283018
         5171     0.0282945
         5172     0.0282872
         5173       0.02828
         5174     0.0282727
         5175     0.0282654
         5176     0.0282581
         5177     0.0282508
         5178     0.0282436
         5179     0.0282363
         5180      0.028229
         5181     0.0282217
         5182     0.0282144
         5183     0.0282071
         5184     0.0281998
         5185     0.0281925
         5186     0.0281852
         5187     0.0281779
         5188     0.0281706
         5189     0.0281633
         5190      0.028156
         5191     0.0281487
         5192     0.0281414
         5193     0.0281341
         5194     0.0281267
         5195     0.0281194
         5196     0.0281121
         5197     0.0281048
         5198     0.0280975
         5199     0.0280901
         5200     0.0280828
         5201     0.0280755
         5202     0.0280681
         5203     0.0280608
         5204     0.0280535
         5205     0.0280461
         5206     0.0280388
         5207     0.0280315
         5208     0.0280241
         5209     0.0280168
         5210     0.0280094
         5211     0.0280021
         5212     0.0279947
         5213     0.0279874
         5214       0.02798
         5215     0.0279727
         5216     0.0279653
         5217      0.027958
         5218     0.0279506
         5219     0.0279432
         5220     0.0279359
         5221     0.0279285
         5222     0.0279211
         5223     0.0279138
         5224     0.0279064
         5225      0.027899
         5226     0.0278917
         5227     0.0278843
         5228     0.0278769
         5229     0.0278695
         5230     0.0278621
         5231     0.0278548
         5232     0.0278474
         5233       0.02784
         5234     0.0278326
         5235     0.0278252
         5236     0.0278178
         5237     0.0278104
         5238      0.027803
         5239     0.0277956
         5240     0.0277882
         5241     0.0277808
         5242     0.0277734
         5243      0.027766
         5244     0.0277586
         5245     0.0277512
         5246     0.0277438