# Probe 0 (0.05 0.05 0.005)
#       Probe             0
#        Time
         4179     0.0343869
         4180      0.034382
         4181     0.0343771
         4182     0.0343722
         4183     0.0343673
         4184     0.0343624
         4185     0.0343575
         4186     0.0343526
         4187     0.0343477
         4188     0.0343428
         4189     0.0343378
         4190     0.0343329
         4191      0.034328
         4192     0.0343231
         4193     0.0343182
         4194     0.0343132
         4195     0.0343083
         4196     0.0343034
         4197     0.0342985
         4198     0.0342935
         4199     0.0342886
         4200     0.0342836
         4201     0.0342787
         4202     0.0342737
         4203     0.0342688
         4204     0.0342638
         4205     0.0342589
         4206     0.0342539
         4207      0.034249
         4208      0.034244
         4209      0.034239
         4210     0.0342341
         4211     0.0342291
         4212     0.0342241
         4213     0.0342192
         4214     0.0342142
         4215     0.0342092
         4216     0.0342042
         4217     0.0341992
         4218     0.0341942
         4219     0.0341892
         4220     0.0341842
         4221     0.0341792
         4222     0.0341742
         4223     0.0341692
         4224     0.0341642
         4225     0.0341592
         4226     0.0341542
         4227     0.0341492
         4228     0.0341442
         4229     0.0341392
         4230     0.0341342
         4231     0.0341291
         4232     0.0341241
         4233     0.0341191
         4234      0.034114
         4235      0.034109
         4236      0.034104
         4237     0.0340989
         4238     0.0340939
         4239     0.0340888
         4240     0.0340838
         4241     0.0340787
         4242     0.0340737
         4243     0.0340686
         4244     0.0340636
         4245     0.0340585
         4246     0.0340535
         4247     0.0340484
         4248     0.0340433
         4249     0.0340383
         4250     0.0340332
         4251     0.0340281
         4252      0.034023
         4253     0.0340179
         4254     0.0340129
         4255     0.0340078
         4256     0.0340027
         4257     0.0339976
         4258     0.0339925
         4259     0.0339874
         4260     0.0339823
         4261     0.0339772
         4262     0.0339721
         4263      0.033967
         4264     0.0339619
         4265     0.0339568
         4266     0.0339516
         4267     0.0339465
         4268     0.0339414
         4269     0.0339363
         4270     0.0339311
         4271      0.033926
         4272     0.0339209
         4273     0.0339158
         4274     0.0339106
         4275     0.0339055
         4276     0.0339003
         4277     0.0338952
         4278       0.03389
         4279     0.0338849
         4280     0.0338797
         4281     0.0338746
         4282     0.0338694
         4283     0.0338643
         4284     0.0338591
         4285     0.0338539
         4286     0.0338488
         4287     0.0338436
         4288     0.0338384
         4289     0.0338332
         4290     0.0338281
         4291     0.0338229
         4292     0.0338177
         4293     0.0338125
         4294     0.0338073
         4295     0.0338021
         4296     0.0337969
         4297     0.0337917
         4298     0.0337865
         4299     0.0337813
         4300     0.0337761
         4301     0.0337709
         4302     0.0337657
         4303     0.0337605
         4304     0.0337553
         4305       0.03375
         4306     0.0337448
         4307     0.0337396
         4308     0.0337344
         4309     0.0337291
         4310     0.0337239
         4311     0.0337187
         4312     0.0337134
         4313     0.0337082
         4314      0.033703
         4315     0.0336977
         4316     0.0336925
         4317     0.0336872
         4318      0.033682
         4319     0.0336767
         4320     0.0336714
         4321     0.0336662
         4322     0.0336609
         4323     0.0336556
         4324     0.0336504
         4325     0.0336451
         4326     0.0336398
         4327     0.0336346
         4328     0.0336293
         4329      0.033624
         4330     0.0336187
         4331     0.0336134
         4332     0.0336081
         4333     0.0336028
         4334     0.0335975
         4335     0.0335922
         4336     0.0335869
         4337     0.0335816
         4338     0.0335763
         4339      0.033571
         4340     0.0335657
         4341     0.0335604
         4342     0.0335551
         4343     0.0335498
         4344     0.0335444
         4345     0.0335391
         4346     0.0335338
         4347     0.0335285
         4348     0.0335231
         4349     0.0335178
         4350     0.0335125
         4351     0.0335071
         4352     0.0335018
         4353     0.0334964
         4354     0.0334911
         4355     0.0334857
         4356     0.0334804
         4357      0.033475
         4358     0.0334697
         4359     0.0334643
         4360     0.0334589
         4361     0.0334536
         4362     0.0334482
         4363     0.0334428
         4364     0.0334375
         4365     0.0334321
         4366     0.0334267
         4367     0.0334213
         4368     0.0334159
         4369     0.0334105
         4370     0.0334051
         4371     0.0333998
         4372     0.0333944
         4373      0.033389
         4374     0.0333836
         4375     0.0333782
         4376     0.0333728
         4377     0.0333673
         4378     0.0333619
         4379     0.0333565
         4380     0.0333511
         4381     0.0333457
         4382     0.0333403
         4383     0.0333348
         4384     0.0333294
         4385      0.033324
         4386     0.0333185
         4387     0.0333131
         4388     0.0333077
         4389     0.0333022
         4390     0.0332968
         4391     0.0332913
         4392     0.0332859
         4393     0.0332804
         4394      0.033275
         4395     0.0332695
         4396     0.0332641
         4397     0.0332586
         4398     0.0332532
         4399     0.0332477
         4400     0.0332422
         4401     0.0332368
         4402     0.0332313
         4403     0.0332258
         4404     0.0332203
         4405     0.0332148
         4406     0.0332094
         4407     0.0332039
         4408     0.0331984
         4409     0.0331929
         4410     0.0331874
         4411     0.0331819
         4412     0.0331764
         4413     0.0331709
         4414     0.0331654
         4415     0.0331599
         4416     0.0331544
         4417     0.0331489
         4418     0.0331433
         4419     0.0331378
         4420     0.0331323
         4421     0.0331268
         4422     0.0331212
         4423     0.0331157
         4424     0.0331102
         4425     0.0331047
         4426     0.0330991
         4427     0.0330936
         4428      0.033088
         4429     0.0330825
         4430     0.0330769
         4431     0.0330714
         4432     0.0330658
         4433     0.0330603
         4434     0.0330547
         4435     0.0330492
         4436     0.0330436
         4437      0.033038
         4438     0.0330325
         4439     0.0330269
         4440     0.0330213
         4441     0.0330158
         4442     0.0330102
         4443     0.0330046
         4444      0.032999
         4445     0.0329934
         4446     0.0329878
         4447     0.0329822
         4448     0.0329767
         4449     0.0329711
         4450     0.0329655
         4451     0.0329599
         4452     0.0329542
         4453     0.0329486
         4454      0.032943
         4455     0.0329374
         4456     0.0329318
         4457     0.0329262
         4458     0.0329206
         4459     0.0329149
         4460     0.0329093
         4461     0.0329037
         4462     0.0328981
         4463     0.0328924
         4464     0.0328868
         4465     0.0328812
         4466     0.0328755
         4467     0.0328699
         4468     0.0328642
         4469     0.0328586
         4470     0.0328529
         4471     0.0328473
         4472     0.0328416
         4473      0.032836
         4474     0.0328303
         4475     0.0328246
         4476      0.032819
         4477     0.0328133
         4478     0.0328076
         4479      0.032802
         4480     0.0327963
         4481     0.0327906
         4482     0.0327849
         4483     0.0327792
         4484     0.0327735
         4485     0.0327679
         4486     0.0327622
         4487     0.0327565
         4488     0.0327508
         4489     0.0327451
         4490     0.0327394
         4491     0.0327337
         4492      0.032728
         4493     0.0327222
         4494     0.0327165
         4495     0.0327108
         4496     0.0327051
         4497     0.0326994
         4498     0.0326936
         4499     0.0326879
         4500     0.0326822
         4501     0.0326765
         4502     0.0326707
         4503      0.032665
         4504     0.0326593
         4505     0.0326535
         4506     0.0326478
         4507      0.032642
         4508     0.0326363
         4509     0.0326305
         4510     0.0326248
         4511      0.032619
         4512     0.0326133
         4513     0.0326075
         4514     0.0326017
         4515      0.032596
         4516     0.0325902
         4517     0.0325844
         4518     0.0325786
         4519     0.0325729
         4520     0.0325671
         4521     0.0325613
         4522     0.0325555
         4523     0.0325497
         4524     0.0325439
         4525     0.0325381
         4526     0.0325324
         4527     0.0325266
         4528     0.0325208
         4529     0.0325149
         4530     0.0325091
         4531     0.0325033
         4532     0.0324975
         4533     0.0324917
         4534     0.0324859
         4535     0.0324801
         4536     0.0324743
         4537     0.0324684
         4538     0.0324626
         4539     0.0324568
         4540     0.0324509
         4541     0.0324451
         4542     0.0324393
         4543     0.0324334
         4544     0.0324276
         4545     0.0324218
         4546     0.0324159
         4547     0.0324101
         4548     0.0324042
         4549     0.0323984
         4550     0.0323925
         4551     0.0323866
         4552     0.0323808
         4553     0.0323749
         4554      0.032369
         4555     0.0323632
         4556     0.0323573
         4557     0.0323514
         4558     0.0323455
         4559     0.0323397
         4560     0.0323338
         4561     0.0323279
         4562      0.032322
         4563     0.0323161
         4564     0.0323102
         4565     0.0323043
         4566     0.0322984
         4567     0.0322925
         4568     0.0322866
         4569     0.0322807
         4570     0.0322748
         4571     0.0322689
         4572      0.032263
         4573     0.0322571
         4574     0.0322512
         4575     0.0322453
         4576     0.0322393
         4577     0.0322334
         4578     0.0322275
         4579     0.0322215
         4580     0.0322156
         4581     0.0322097
         4582     0.0322037
         4583     0.0321978
         4584     0.0321919
         4585     0.0321859
         4586       0.03218
         4587      0.032174
         4588     0.0321681
         4589     0.0321621
         4590     0.0321561
         4591     0.0321502
         4592     0.0321442
         4593     0.0321383
         4594     0.0321323
         4595     0.0321263
         4596     0.0321203
         4597     0.0321144
         4598     0.0321084
         4599     0.0321024
         4600     0.0320964
         4601     0.0320904
         4602     0.0320844
         4603     0.0320785
         4604     0.0320725
         4605     0.0320665
         4606     0.0320605
         4607     0.0320545
         4608     0.0320485
         4609     0.0320425
         4610     0.0320364
         4611     0.0320304
         4612     0.0320244
         4613     0.0320184
         4614     0.0320124
         4615     0.0320064
         4616     0.0320003
         4617     0.0319943
         4618     0.0319883
         4619     0.0319823
         4620     0.0319762
         4621     0.0319702
         4622     0.0319641
         4623     0.0319581
         4624     0.0319521
         4625      0.031946
         4626       0.03194
         4627     0.0319339
         4628     0.0319279
         4629     0.0319218
         4630     0.0319157
         4631     0.0319097
         4632     0.0319036
         4633     0.0318976
         4634     0.0318915
         4635     0.0318854
         4636     0.0318793
         4637     0.0318733
         4638     0.0318672
         4639     0.0318611
         4640      0.031855
         4641     0.0318489
         4642     0.0318428
         4643     0.0318368
         4644     0.0318307
         4645     0.0318246
         4646     0.0318185
         4647     0.0318124
         4648     0.0318063
         4649     0.0318001
         4650      0.031794
         4651     0.0317879
         4652     0.0317818
         4653     0.0317757
         4654     0.0317696
         4655     0.0317635
         4656     0.0317573
         4657     0.0317512
         4658     0.0317451
         4659     0.0317389
         4660     0.0317328
         4661     0.0317267
         4662     0.0317205
         4663     0.0317144
         4664     0.0317083
         4665     0.0317021
         4666      0.031696
         4667     0.0316898
         4668     0.0316837
         4669     0.0316775
         4670     0.0316713
         4671     0.0316652
         4672      0.031659
         4673     0.0316529
         4674     0.0316467
         4675     0.0316405
         4676     0.0316343
         4677     0.0316282
         4678      0.031622
         4679     0.0316158
         4680     0.0316096
         4681     0.0316034
         4682     0.0315972
         4683     0.0315911
         4684     0.0315849
         4685     0.0315787
         4686     0.0315725
         4687     0.0315663
         4688     0.0315601
         4689     0.0315539
         4690     0.0315477
         4691     0.0315414
         4692     0.0315352
         4693      0.031529
         4694     0.0315228
         4695     0.0315166
         4696     0.0315104
         4697     0.0315041
         4698     0.0314979
         4699     0.0314917
         4700     0.0314854
         4701     0.0314792
         4702      0.031473
         4703     0.0314667
         4704     0.0314605
         4705     0.0314542
         4706      0.031448
         4707     0.0314417
         4708     0.0314355
         4709     0.0314292
         4710      0.031423
         4711     0.0314167
         4712     0.0314105
         4713     0.0314042
         4714     0.0313979
         4715     0.0313917
         4716     0.0313854
         4717     0.0313791
         4718     0.0313728
         4719     0.0313666
         4720     0.0313603
         4721      0.031354
         4722     0.0313477
         4723     0.0313414
         4724     0.0313351
         4725     0.0313288
         4726     0.0313225
         4727     0.0313162
         4728     0.0313099
         4729     0.0313036
         4730     0.0312973
         4731      0.031291
         4732     0.0312847
         4733     0.0312784
         4734     0.0312721
         4735     0.0312658
         4736     0.0312594
         4737     0.0312531
         4738     0.0312468
         4739     0.0312405
         4740     0.0312341
         4741     0.0312278
         4742     0.0312215
         4743     0.0312151
         4744     0.0312088
         4745     0.0312025
         4746     0.0311961
         4747     0.0311898
         4748     0.0311834
         4749     0.0311771
         4750     0.0311707
         4751     0.0311644
         4752      0.031158
         4753     0.0311516
         4754     0.0311453
         4755     0.0311389
         4756     0.0311325
         4757     0.0311262
         4758     0.0311198
         4759     0.0311134
         4760      0.031107
         4761     0.0311007
         4762     0.0310943
         4763     0.0310879
         4764     0.0310815
         4765     0.0310751
         4766     0.0310687
         4767     0.0310623
         4768     0.0310559
         4769     0.0310495
         4770     0.0310431
         4771     0.0310367
         4772     0.0310303
         4773     0.0310239
         4774     0.0310175
         4775     0.0310111
         4776     0.0310047
         4777     0.0309982
         4778     0.0309918
         4779     0.0309854
         4780      0.030979
         4781     0.0309726
         4782     0.0309661
         4783     0.0309597
         4784     0.0309533
         4785     0.0309468
         4786     0.0309404
         4787     0.0309339
         4788     0.0309275
         4789      0.030921
         4790     0.0309146
         4791     0.0309081
         4792     0.0309017
         4793     0.0308952
         4794     0.0308888
         4795     0.0308823
         4796     0.0308758
         4797     0.0308694
         4798     0.0308629
         4799     0.0308564
         4800       0.03085
         4801     0.0308435
         4802      0.030837
         4803     0.0308305
         4804      0.030824
         4805     0.0308176
         4806     0.0308111
         4807     0.0308046
         4808     0.0307981
         4809     0.0307916
         4810     0.0307851
         4811     0.0307786
         4812     0.0307721
         4813     0.0307656
         4814     0.0307591
         4815     0.0307526
         4816     0.0307461
         4817     0.0307396
         4818      0.030733
         4819     0.0307265
         4820       0.03072
         4821     0.0307135
         4822      0.030707
         4823     0.0307004
         4824     0.0306939
         4825     0.0306874
         4826     0.0306808
         4827     0.0306743
         4828     0.0306678
         4829     0.0306612
         4830     0.0306547
         4831     0.0306481
         4832     0.0306416
         4833      0.030635
         4834     0.0306285
         4835     0.0306219
         4836     0.0306154
         4837     0.0306088
         4838     0.0306022
         4839     0.0305957
         4840     0.0305891
         4841     0.0305825
         4842      0.030576
         4843     0.0305694
         4844     0.0305628
         4845     0.0305562
         4846     0.0305496
         4847     0.0305431
         4848     0.0305365
         4849     0.0305299
         4850     0.0305233
         4851     0.0305167
         4852     0.0305101
         4853     0.0305035
         4854     0.0304969
         4855     0.0304903
         4856     0.0304837
         4857     0.0304771
         4858     0.0304705
         4859     0.0304639
         4860     0.0304573
         4861     0.0304507
         4862      0.030444
         4863     0.0304374
         4864     0.0304308
         4865     0.0304242
         4866     0.0304175
         4867     0.0304109
         4868     0.0304043
         4869     0.0303976
         4870      0.030391
         4871     0.0303844
         4872     0.0303777
         4873     0.0303711
         4874     0.0303644
         4875     0.0303578
         4876     0.0303511
         4877     0.0303445
         4878     0.0303378
         4879     0.0303312
         4880     0.0303245
         4881     0.0303179
         4882     0.0303112
         4883     0.0303045
         4884     0.0302979
         4885     0.0302912
         4886     0.0302845
         4887     0.0302778
         4888     0.0302712
         4889     0.0302645
         4890     0.0302578
         4891     0.0302511
         4892     0.0302444
         4893     0.0302377
         4894      0.030231
         4895     0.0302244
         4896     0.0302177
         4897      0.030211
         4898     0.0302043
         4899     0.0301976
         4900     0.0301909
         4901     0.0301841
         4902     0.0301774
         4903     0.0301707
         4904      0.030164
         4905     0.0301573
         4906     0.0301506
         4907     0.0301439
         4908     0.0301371
         4909     0.0301304
         4910     0.0301237
         4911     0.0301169
         4912     0.0301102
         4913     0.0301035
         4914     0.0300967
         4915       0.03009
         4916     0.0300833
         4917     0.0300765
         4918     0.0300698
         4919      0.030063
         4920     0.0300563
         4921     0.0300495
         4922     0.0300428
         4923      0.030036
         4924     0.0300293
         4925     0.0300225
         4926     0.0300157
         4927      0.030009
         4928     0.0300022
         4929     0.0299954
         4930     0.0299887
         4931     0.0299819
         4932     0.0299751
         4933     0.0299683
         4934     0.0299615
         4935     0.0299548
         4936      0.029948
         4937     0.0299412
         4938     0.0299344
         4939     0.0299276
         4940     0.0299208
         4941      0.029914
         4942     0.0299072
         4943     0.0299004
         4944     0.0298936
         4945     0.0298868
         4946       0.02988
         4947     0.0298732
         4948     0.0298664
         4949     0.0298596
         4950     0.0298527
         4951     0.0298459
         4952     0.0298391
         4953     0.0298323
         4954     0.0298255
         4955     0.0298186
         4956     0.0298118
         4957      0.029805
         4958     0.0297981
         4959     0.0297913
         4960     0.0297845
         4961     0.0297776
         4962     0.0297708
         4963     0.0297639
         4964     0.0297571
         4965     0.0297502
         4966     0.0297434
         4967     0.0297365
         4968     0.0297297
         4969     0.0297228
         4970      0.029716
         4971     0.0297091
         4972     0.0297022
         4973     0.0296954
         4974     0.0296885
         4975     0.0296816
         4976     0.0296747
         4977     0.0296679
         4978      0.029661
         4979     0.0296541
         4980     0.0296472
         4981     0.0296403
         4982     0.0296335
         4983     0.0296266
         4984     0.0296197
         4985     0.0296128
         4986     0.0296059
         4987      0.029599
         4988     0.0295921
         4989     0.0295852
         4990     0.0295783
         4991     0.0295714
         4992     0.0295645
         4993     0.0295576
         4994     0.0295506
         4995     0.0295437
         4996     0.0295368
         4997     0.0295299
         4998      0.029523
         4999     0.0295161
         5000     0.0295091
         5001     0.0295022
         5002     0.0294953
         5003     0.0294883
         5004     0.0294814
         5005     0.0294745
         5006     0.0294675
         5007     0.0294606
         5008     0.0294536
         5009     0.0294467
         5010     0.0294398
         5011     0.0294328
         5012     0.0294259
         5013     0.0294189
         5014      0.029412
         5015      0.029405
         5016      0.029398
         5017     0.0293911
         5018     0.0293841
         5019     0.0293771
         5020     0.0293702
         5021     0.0293632
         5022     0.0293562
         5023     0.0293493
         5024     0.0293423
         5025     0.0293353
         5026     0.0293283
         5027     0.0293213
         5028     0.0293144
         5029     0.0293074
         5030     0.0293004
         5031     0.0292934
         5032     0.0292864
         5033     0.0292794
         5034     0.0292724
         5035     0.0292654
         5036     0.0292584
         5037     0.0292514
         5038     0.0292444
         5039     0.0292374
         5040     0.0292304
         5041     0.0292234
         5042     0.0292163
         5043     0.0292093
         5044     0.0292023
         5045     0.0291953
         5046     0.0291883
         5047     0.0291812
         5048     0.0291742
         5049     0.0291672
         5050     0.0291602
         5051     0.0291531
         5052     0.0291461
         5053      0.029139
         5054      0.029132
         5055      0.029125
         5056     0.0291179
         5057     0.0291109
         5058     0.0291038
         5059     0.0290968
         5060     0.0290897
         5061     0.0290827
         5062     0.0290756
         5063     0.0290686
         5064     0.0290615
         5065     0.0290544
         5066     0.0290474
         5067     0.0290403
         5068     0.0290332
         5069     0.0290262
         5070     0.0290191
         5071      0.029012
         5072      0.029005
         5073     0.0289979
         5074     0.0289908
         5075     0.0289837
         5076     0.0289766
         5077     0.0289695
         5078     0.0289624
         5079     0.0289554
         5080     0.0289483
         5081     0.0289412
         5082     0.0289341
         5083      0.028927
         5084     0.0289199
         5085     0.0289128
         5086     0.0289057
         5087     0.0288986
         5088     0.0288915
         5089     0.0288843
         5090     0.0288772
         5091     0.0288701
         5092      0.028863
         5093     0.0288559
         5094     0.0288488
         5095     0.0288416
         5096     0.0288345
         5097     0.0288274
         5098     0.0288202
         5099     0.0288131
         5100      0.028806
         5101     0.0287989
         5102     0.0287917
         5103     0.0287846
         5104     0.0287774
         5105     0.0287703
         5106     0.0287631
         5107      0.028756
         5108     0.0287488
         5109     0.0287417
         5110     0.0287345
         5111     0.0287274
         5112     0.0287202
         5113     0.0287131
         5114     0.0287059
         5115     0.0286987
         5116     0.0286916
         5117     0.0286844
         5118     0.0286772
         5119     0.0286701
         5120     0.0286629
         5121     0.0286557
         5122     0.0286485
         5123     0.0286414
         5124     0.0286342
         5125      0.028627
         5126     0.0286198
         5127     0.0286126
         5128     0.0286054
         5129     0.0285983
         5130     0.0285911
         5131     0.0285839
         5132     0.0285767
         5133     0.0285695
         5134     0.0285623
         5135     0.0285551
         5136     0.0285479
         5137     0.0285407
         5138     0.0285334
         5139     0.0285262
         5140      0.028519
         5141     0.0285118
         5142     0.0285046
         5143     0.0284974
         5144     0.0284902
         5145     0.0284829
         5146     0.0284757
         5147     0.0284685
         5148     0.0284613
         5149      0.028454
         5150     0.0284468
         5151     0.0284396
         5152     0.0284323
         5153     0.0284251
         5154     0.0284178
         5155     0.0284106
         5156     0.0284034
         5157     0.0283961
         5158     0.0283889
         5159     0.0283816
         5160     0.0283744
         5161     0.0283671
         5162     0.0283599
         5163     0.0283526
         5164     0.0283453
         5165     0.0283381
         5166     0.0283308
         5167     0.0283236
         5168     0.0283163
         5169      0.028309
         5170     0.0283017
         5171     0.0282945
         5172     0.0282872
         5173     0.0282799
         5174     0.0282726
         5175     0.0282654
         5176     0.0282581
         5177     0.0282508
         5178     0.0282435
         5179     0.0282362
         5180     0.0282289
         5181     0.0282216
         5182     0.0282144
         5183     0.0282071
         5184     0.0281998
         5185     0.0281925
         5186     0.0281852
         5187     0.0281779
         5188     0.0281706
         5189     0.0281633
         5190     0.0281559
         5191     0.0281486
         5192     0.0281413
         5193      0.028134
         5194     0.0281267
         5195     0.0281194
         5196     0.0281121
         5197     0.0281047
         5198     0.0280974
         5199     0.0280901
         5200     0.0280828
         5201     0.0280754
         5202     0.0280681
         5203     0.0280608
         5204     0.0280534
         5205     0.0280461
         5206     0.0280388
         5207     0.0280314
         5208     0.0280241
         5209     0.0280167
         5210     0.0280094
         5211      0.028002
         5212     0.0279947
         5213     0.0279873
         5214       0.02798
         5215     0.0279726
         5216     0.0279653
         5217     0.0279579
         5218     0.0279506
         5219     0.0279432
         5220     0.0279358
         5221     0.0279285
         5222     0.0279211
         5223     0.0279137
         5224     0.0279064
         5225      0.027899
         5226     0.0278916
         5227     0.0278842
         5228     0.0278769
         5229     0.0278695
         5230     0.0278621
         5231     0.0278547
         5232     0.0278473
         5233     0.0278399
         5234     0.0278325
         5235     0.0278252
         5236     0.0278178
         5237     0.0278104
         5238      0.027803
         5239     0.0277956
         5240     0.0277882
         5241     0.0277808
         5242     0.0277734
         5243      0.027766
         5244     0.0277586
         5245     0.0277511
         5246     0.0277437