# Probe 0 (0.05 0.05 0.005)
#       Probe             0
#        Time
         4179   3.38682e+09
         4180   3.38681e+09
         4181   3.38679e+09
         4182   3.38678e+09
         4183   3.38676e+09
         4184   3.38674e+09
         4185   3.38673e+09
         4186   3.38671e+09
         4187   3.38669e+09
         4188   3.38668e+09
         4189   3.38666e+09
         4190   3.38664e+09
         4191   3.38663e+09
         4192   3.38661e+09
         4193   3.38659e+09
         4194   3.38658e+09
         4195   3.38656e+09
         4196   3.38654e+09
         4197   3.38653e+09
         4198   3.38651e+09
         4199   3.38649e+09
         4200   3.38648e+09
         4201   3.38646e+09
         4202   3.38644e+09
         4203   3.38643e+09
         4204   3.38641e+09
         4205   3.38639e+09
         4206   3.38638e+09
         4207   3.38636e+09
         4208   3.38634e+09
         4209   3.38633e+09
         4210   3.38631e+09
         4211   3.38629e+09
         4212   3.38628e+09
         4213   3.38626e+09
         4214   3.38624e+09
         4215   3.38623e+09
         4216   3.38621e+09
         4217   3.38619e+09
         4218   3.38618e+09
         4219   3.38616e+09
         4220   3.38614e+09
         4221   3.38613e+09
         4222   3.38611e+09
         4223   3.38609e+09
         4224   3.38607e+09
         4225   3.38606e+09
         4226   3.38604e+09
         4227   3.38602e+09
         4228   3.38601e+09
         4229   3.38599e+09
         4230   3.38597e+09
         4231   3.38596e+09
         4232   3.38594e+09
         4233   3.38592e+09
         4234    3.3859e+09
         4235   3.38589e+09
         4236   3.38587e+09
         4237   3.38585e+09
         4238   3.38584e+09
         4239   3.38582e+09
         4240    3.3858e+09
         4241   3.38578e+09
         4242   3.38577e+09
         4243   3.38575e+09
         4244   3.38573e+09
         4245   3.38572e+09
         4246    3.3857e+09
         4247   3.38568e+09
         4248   3.38566e+09
         4249   3.38565e+09
         4250   3.38563e+09
         4251   3.38561e+09
         4252   3.38559e+09
         4253   3.38558e+09
         4254   3.38556e+09
         4255   3.38554e+09
         4256   3.38553e+09
         4257   3.38551e+09
         4258   3.38549e+09
         4259   3.38547e+09
         4260   3.38546e+09
         4261   3.38544e+09
         4262   3.38542e+09
         4263    3.3854e+09
         4264   3.38539e+09
         4265   3.38537e+09
         4266   3.38535e+09
         4267   3.38533e+09
         4268   3.38532e+09
         4269    3.3853e+09
         4270   3.38528e+09
         4271   3.38526e+09
         4272   3.38525e+09
         4273   3.38523e+09
         4274   3.38521e+09
         4275   3.38519e+09
         4276   3.38518e+09
         4277   3.38516e+09
         4278   3.38514e+09
         4279   3.38512e+09
         4280   3.38511e+09
         4281   3.38509e+09
         4282   3.38507e+09
         4283   3.38505e+09
         4284   3.38504e+09
         4285   3.38502e+09
         4286     3.385e+09
         4287   3.38498e+09
         4288   3.38496e+09
         4289   3.38495e+09
         4290   3.38493e+09
         4291   3.38491e+09
         4292   3.38489e+09
         4293   3.38488e+09
         4294   3.38486e+09
         4295   3.38484e+09
         4296   3.38482e+09
         4297    3.3848e+09
         4298   3.38479e+09
         4299   3.38477e+09
         4300   3.38475e+09
         4301   3.38473e+09
         4302   3.38471e+09
         4303    3.3847e+09
         4304   3.38468e+09
         4305   3.38466e+09
         4306   3.38464e+09
         4307   3.38462e+09
         4308   3.38461e+09
         4309   3.38459e+09
         4310   3.38457e+09
         4311   3.38455e+09
         4312   3.38453e+09
         4313   3.38452e+09
         4314    3.3845e+09
         4315   3.38448e+09
         4316   3.38446e+09
         4317   3.38444e+09
         4318   3.38443e+09
         4319   3.38441e+09
         4320   3.38439e+09
         4321   3.38437e+09
         4322   3.38435e+09
         4323   3.38434e+09
         4324   3.38432e+09
         4325    3.3843e+09
         4326   3.38428e+09
         4327   3.38426e+09
         4328   3.38424e+09
         4329   3.38423e+09
         4330   3.38421e+09
         4331   3.38419e+09
         4332   3.38417e+09
         4333   3.38415e+09
         4334   3.38413e+09
         4335   3.38412e+09
         4336    3.3841e+09
         4337   3.38408e+09
         4338   3.38406e+09
         4339   3.38404e+09
         4340   3.38402e+09
         4341   3.38401e+09
         4342   3.38399e+09
         4343   3.38397e+09
         4344   3.38395e+09
         4345   3.38393e+09
         4346   3.38391e+09
         4347    3.3839e+09
         4348   3.38388e+09
         4349   3.38386e+09
         4350   3.38384e+09
         4351   3.38382e+09
         4352    3.3838e+09
         4353   3.38378e+09
         4354   3.38377e+09
         4355   3.38375e+09
         4356   3.38373e+09
         4357   3.38371e+09
         4358   3.38369e+09
         4359   3.38367e+09
         4360   3.38365e+09
         4361   3.38363e+09
         4362   3.38362e+09
         4363    3.3836e+09
         4364   3.38358e+09
         4365   3.38356e+09
         4366   3.38354e+09
         4367   3.38352e+09
         4368    3.3835e+09
         4369   3.38348e+09
         4370   3.38347e+09
         4371   3.38345e+09
         4372   3.38343e+09
         4373   3.38341e+09
         4374   3.38339e+09
         4375   3.38337e+09
         4376   3.38335e+09
         4377   3.38333e+09
         4378   3.38332e+09
         4379    3.3833e+09
         4380   3.38328e+09
         4381   3.38326e+09
         4382   3.38324e+09
         4383   3.38322e+09
         4384    3.3832e+09
         4385   3.38318e+09
         4386   3.38316e+09
         4387   3.38314e+09
         4388   3.38313e+09
         4389   3.38311e+09
         4390   3.38309e+09
         4391   3.38307e+09
         4392   3.38305e+09
         4393   3.38303e+09
         4394   3.38301e+09
         4395   3.38299e+09
         4396   3.38297e+09
         4397   3.38295e+09
         4398   3.38293e+09
         4399   3.38292e+09
         4400    3.3829e+09
         4401   3.38288e+09
         4402   3.38286e+09
         4403   3.38284e+09
         4404   3.38282e+09
         4405    3.3828e+09
         4406   3.38278e+09
         4407   3.38276e+09
         4408   3.38274e+09
         4409   3.38272e+09
         4410    3.3827e+09
         4411   3.38268e+09
         4412   3.38266e+09
         4413   3.38265e+09
         4414   3.38263e+09
         4415   3.38261e+09
         4416   3.38259e+09
         4417   3.38257e+09
         4418   3.38255e+09
         4419   3.38253e+09
         4420   3.38251e+09
         4421   3.38249e+09
         4422   3.38247e+09
         4423   3.38245e+09
         4424   3.38243e+09
         4425   3.38241e+09
         4426   3.38239e+09
         4427   3.38237e+09
         4428   3.38235e+09
         4429   3.38233e+09
         4430   3.38231e+09
         4431   3.38229e+09
         4432   3.38228e+09
         4433   3.38226e+09
         4434   3.38224e+09
         4435   3.38222e+09
         4436    3.3822e+09
         4437   3.38218e+09
         4438   3.38216e+09
         4439   3.38214e+09
         4440   3.38212e+09
         4441    3.3821e+09
         4442   3.38208e+09
         4443   3.38206e+09
         4444   3.38204e+09
         4445   3.38202e+09
         4446     3.382e+09
         4447   3.38198e+09
         4448   3.38196e+09
         4449   3.38194e+09
         4450   3.38192e+09
         4451    3.3819e+09
         4452   3.38188e+09
         4453   3.38186e+09
         4454   3.38184e+09
         4455   3.38182e+09
         4456    3.3818e+09
         4457   3.38178e+09
         4458   3.38176e+09
         4459   3.38174e+09
         4460   3.38172e+09
         4461    3.3817e+09
         4462   3.38168e+09
         4463   3.38166e+09
         4464   3.38164e+09
         4465   3.38162e+09
         4466    3.3816e+09
         4467   3.38158e+09
         4468   3.38156e+09
         4469   3.38154e+09
         4470   3.38152e+09
         4471    3.3815e+09
         4472   3.38148e+09
         4473   3.38146e+09
         4474   3.38144e+09
         4475   3.38142e+09
         4476    3.3814e+09
         4477   3.38138e+09
         4478   3.38136e+09
         4479   3.38134e+09
         4480   3.38132e+09
         4481    3.3813e+09
         4482   3.38128e+09
         4483   3.38126e+09
         4484   3.38124e+09
         4485   3.38122e+09
         4486    3.3812e+09
         4487   3.38117e+09
         4488   3.38115e+09
         4489   3.38113e+09
         4490   3.38111e+09
         4491   3.38109e+09
         4492   3.38107e+09
         4493   3.38105e+09
         4494   3.38103e+09
         4495   3.38101e+09
         4496   3.38099e+09
         4497   3.38097e+09
         4498   3.38095e+09
         4499   3.38093e+09
         4500   3.38091e+09
         4501   3.38089e+09
         4502   3.38087e+09
         4503   3.38085e+09
         4504   3.38083e+09
         4505   3.38081e+09
         4506   3.38079e+09
         4507   3.38076e+09
         4508   3.38074e+09
         4509   3.38072e+09
         4510    3.3807e+09
         4511   3.38068e+09
         4512   3.38066e+09
         4513   3.38064e+09
         4514   3.38062e+09
         4515    3.3806e+09
         4516   3.38058e+09
         4517   3.38056e+09
         4518   3.38054e+09
         4519   3.38052e+09
         4520   3.38049e+09
         4521   3.38047e+09
         4522   3.38045e+09
         4523   3.38043e+09
         4524   3.38041e+09
         4525   3.38039e+09
         4526   3.38037e+09
         4527   3.38035e+09
         4528   3.38033e+09
         4529   3.38031e+09
         4530   3.38029e+09
         4531   3.38026e+09
         4532   3.38024e+09
         4533   3.38022e+09
         4534    3.3802e+09
         4535   3.38018e+09
         4536   3.38016e+09
         4537   3.38014e+09
         4538   3.38012e+09
         4539    3.3801e+09
         4540   3.38007e+09
         4541   3.38005e+09
         4542   3.38003e+09
         4543   3.38001e+09
         4544   3.37999e+09
         4545   3.37997e+09
         4546   3.37995e+09
         4547   3.37993e+09
         4548   3.37991e+09
         4549   3.37988e+09
         4550   3.37986e+09
         4551   3.37984e+09
         4552   3.37982e+09
         4553    3.3798e+09
         4554   3.37978e+09
         4555   3.37976e+09
         4556   3.37973e+09
         4557   3.37971e+09
         4558   3.37969e+09
         4559   3.37967e+09
         4560   3.37965e+09
         4561   3.37963e+09
         4562   3.37961e+09
         4563   3.37958e+09
         4564   3.37956e+09
         4565   3.37954e+09
         4566   3.37952e+09
         4567    3.3795e+09
         4568   3.37948e+09
         4569   3.37946e+09
         4570   3.37943e+09
         4571   3.37941e+09
         4572   3.37939e+09
         4573   3.37937e+09
         4574   3.37935e+09
         4575   3.37933e+09
         4576    3.3793e+09
         4577   3.37928e+09
         4578   3.37926e+09
         4579   3.37924e+09
         4580   3.37922e+09
         4581    3.3792e+09
         4582   3.37917e+09
         4583   3.37915e+09
         4584   3.37913e+09
         4585   3.37911e+09
         4586   3.37909e+09
         4587   3.37907e+09
         4588   3.37904e+09
         4589   3.37902e+09
         4590     3.379e+09
         4591   3.37898e+09
         4592   3.37896e+09
         4593   3.37893e+09
         4594   3.37891e+09
         4595   3.37889e+09
         4596   3.37887e+09
         4597   3.37885e+09
         4598   3.37882e+09
         4599    3.3788e+09
         4600   3.37878e+09
         4601   3.37876e+09
         4602   3.37874e+09
         4603   3.37871e+09
         4604   3.37869e+09
         4605   3.37867e+09
         4606   3.37865e+09
         4607   3.37863e+09
         4608    3.3786e+09
         4609   3.37858e+09
         4610   3.37856e+09
         4611   3.37854e+09
         4612   3.37852e+09
         4613   3.37849e+09
         4614   3.37847e+09
         4615   3.37845e+09
         4616   3.37843e+09
         4617    3.3784e+09
         4618   3.37838e+09
         4619   3.37836e+09
         4620   3.37834e+09
         4621   3.37832e+09
         4622   3.37829e+09
         4623   3.37827e+09
         4624   3.37825e+09
         4625   3.37823e+09
         4626    3.3782e+09
         4627   3.37818e+09
         4628   3.37816e+09
         4629   3.37814e+09
         4630   3.37811e+09
         4631   3.37809e+09
         4632   3.37807e+09
         4633   3.37805e+09
         4634   3.37802e+09
         4635     3.378e+09
         4636   3.37798e+09
         4637   3.37796e+09
         4638   3.37793e+09
         4639   3.37791e+09
         4640   3.37789e+09
         4641   3.37787e+09
         4642   3.37784e+09
         4643   3.37782e+09
         4644    3.3778e+09
         4645   3.37778e+09
         4646   3.37775e+09
         4647   3.37773e+09
         4648   3.37771e+09
         4649   3.37768e+09
         4650   3.37766e+09
         4651   3.37764e+09
         4652   3.37762e+09
         4653   3.37759e+09
         4654   3.37757e+09
         4655   3.37755e+09
         4656   3.37753e+09
         4657    3.3775e+09
         4658   3.37748e+09
         4659   3.37746e+09
         4660   3.37743e+09
         4661   3.37741e+09
         4662   3.37739e+09
         4663   3.37737e+09
         4664   3.37734e+09
         4665   3.37732e+09
         4666    3.3773e+09
         4667   3.37727e+09
         4668   3.37725e+09
         4669   3.37723e+09
         4670    3.3772e+09
         4671   3.37718e+09
         4672   3.37716e+09
         4673   3.37714e+09
         4674   3.37711e+09
         4675   3.37709e+09
         4676   3.37707e+09
         4677   3.37704e+09
         4678   3.37702e+09
         4679     3.377e+09
         4680   3.37697e+09
         4681   3.37695e+09
         4682   3.37693e+09
         4683    3.3769e+09
         4684   3.37688e+09
         4685   3.37686e+09
         4686   3.37683e+09
         4687   3.37681e+09
         4688   3.37679e+09
         4689   3.37676e+09
         4690   3.37674e+09
         4691   3.37672e+09
         4692   3.37669e+09
         4693   3.37667e+09
         4694   3.37665e+09
         4695   3.37662e+09
         4696    3.3766e+09
         4697   3.37658e+09
         4698   3.37655e+09
         4699   3.37653e+09
         4700   3.37651e+09
         4701   3.37648e+09
         4702   3.37646e+09
         4703   3.37644e+09
         4704   3.37641e+09
         4705   3.37639e+09
         4706   3.37636e+09
         4707   3.37634e+09
         4708   3.37632e+09
         4709   3.37629e+09
         4710   3.37627e+09
         4711   3.37625e+09
         4712   3.37622e+09
         4713    3.3762e+09
         4714   3.37618e+09
         4715   3.37615e+09
         4716   3.37613e+09
         4717    3.3761e+09
         4718   3.37608e+09
         4719   3.37606e+09
         4720   3.37603e+09
         4721   3.37601e+09
         4722   3.37598e+09
         4723   3.37596e+09
         4724   3.37594e+09
         4725   3.37591e+09
         4726   3.37589e+09
         4727   3.37587e+09
         4728   3.37584e+09
         4729   3.37582e+09
         4730   3.37579e+09
         4731   3.37577e+09
         4732   3.37575e+09
         4733   3.37572e+09
         4734    3.3757e+09
         4735   3.37567e+09
         4736   3.37565e+09
         4737   3.37563e+09
         4738    3.3756e+09
         4739   3.37558e+09
         4740   3.37555e+09
         4741   3.37553e+09
         4742    3.3755e+09
         4743   3.37548e+09
         4744   3.37546e+09
         4745   3.37543e+09
         4746   3.37541e+09
         4747   3.37538e+09
         4748   3.37536e+09
         4749   3.37534e+09
         4750   3.37531e+09
         4751   3.37529e+09
         4752   3.37526e+09
         4753   3.37524e+09
         4754   3.37521e+09
         4755   3.37519e+09
         4756   3.37517e+09
         4757   3.37514e+09
         4758   3.37512e+09
         4759   3.37509e+09
         4760   3.37507e+09
         4761   3.37504e+09
         4762   3.37502e+09
         4763   3.37499e+09
         4764   3.37497e+09
         4765   3.37494e+09
         4766   3.37492e+09
         4767    3.3749e+09
         4768   3.37487e+09
         4769   3.37485e+09
         4770   3.37482e+09
         4771    3.3748e+09
         4772   3.37477e+09
         4773   3.37475e+09
         4774   3.37472e+09
         4775    3.3747e+09
         4776   3.37467e+09
         4777   3.37465e+09
         4778   3.37462e+09
         4779    3.3746e+09
         4780   3.37458e+09
         4781   3.37455e+09
         4782   3.37453e+09
         4783    3.3745e+09
         4784   3.37448e+09
         4785   3.37445e+09
         4786   3.37443e+09
         4787    3.3744e+09
         4788   3.37438e+09
         4789   3.37435e+09
         4790   3.37433e+09
         4791    3.3743e+09
         4792   3.37428e+09
         4793   3.37425e+09
         4794   3.37423e+09
         4795    3.3742e+09
         4796   3.37418e+09
         4797   3.37415e+09
         4798   3.37413e+09
         4799    3.3741e+09
         4800   3.37408e+09
         4801   3.37405e+09
         4802   3.37403e+09
         4803     3.374e+09
         4804   3.37398e+09
         4805   3.37395e+09
         4806   3.37393e+09
         4807    3.3739e+09
         4808   3.37388e+09
         4809   3.37385e+09
         4810   3.37382e+09
         4811    3.3738e+09
         4812   3.37377e+09
         4813   3.37375e+09
         4814   3.37372e+09
         4815    3.3737e+09
         4816   3.37367e+09
         4817   3.37365e+09
         4818   3.37362e+09
         4819    3.3736e+09
         4820   3.37357e+09
         4821   3.37355e+09
         4822   3.37352e+09
         4823    3.3735e+09
         4824   3.37347e+09
         4825   3.37344e+09
         4826   3.37342e+09
         4827   3.37339e+09
         4828   3.37337e+09
         4829   3.37334e+09
         4830   3.37332e+09
         4831   3.37329e+09
         4832   3.37327e+09
         4833   3.37324e+09
         4834   3.37321e+09
         4835   3.37319e+09
         4836   3.37316e+09
         4837   3.37314e+09
         4838   3.37311e+09
         4839   3.37309e+09
         4840   3.37306e+09
         4841   3.37303e+09
         4842   3.37301e+09
         4843   3.37298e+09
         4844   3.37296e+09
         4845   3.37293e+09
         4846   3.37291e+09
         4847   3.37288e+09
         4848   3.37285e+09
         4849   3.37283e+09
         4850    3.3728e+09
         4851   3.37278e+09
         4852   3.37275e+09
         4853   3.37272e+09
         4854    3.3727e+09
         4855   3.37267e+09
         4856   3.37265e+09
         4857   3.37262e+09
         4858   3.37259e+09
         4859   3.37257e+09
         4860   3.37254e+09
         4861   3.37252e+09
         4862   3.37249e+09
         4863   3.37246e+09
         4864   3.37244e+09
         4865   3.37241e+09
         4866   3.37238e+09
         4867   3.37236e+09
         4868   3.37233e+09
         4869   3.37231e+09
         4870   3.37228e+09
         4871   3.37225e+09
         4872   3.37223e+09
         4873    3.3722e+09
         4874   3.37217e+09
         4875   3.37215e+09
         4876   3.37212e+09
         4877    3.3721e+09
         4878   3.37207e+09
         4879   3.37204e+09
         4880   3.37202e+09
         4881   3.37199e+09
         4882   3.37196e+09
         4883   3.37194e+09
         4884   3.37191e+09
         4885   3.37188e+09
         4886   3.37186e+09
         4887   3.37183e+09
         4888    3.3718e+09
         4889   3.37178e+09
         4890   3.37175e+09
         4891   3.37173e+09
         4892    3.3717e+09
         4893   3.37167e+09
         4894   3.37165e+09
         4895   3.37162e+09
         4896   3.37159e+09
         4897   3.37157e+09
         4898   3.37154e+09
         4899   3.37151e+09
         4900   3.37149e+09
         4901   3.37146e+09
         4902   3.37143e+09
         4903    3.3714e+09
         4904   3.37138e+09
         4905   3.37135e+09
         4906   3.37132e+09
         4907    3.3713e+09
         4908   3.37127e+09
         4909   3.37124e+09
         4910   3.37122e+09
         4911   3.37119e+09
         4912   3.37116e+09
         4913   3.37114e+09
         4914   3.37111e+09
         4915   3.37108e+09
         4916   3.37106e+09
         4917   3.37103e+09
         4918     3.371e+09
         4919   3.37097e+09
         4920   3.37095e+09
         4921   3.37092e+09
         4922   3.37089e+09
         4923   3.37087e+09
         4924   3.37084e+09
         4925   3.37081e+09
         4926   3.37078e+09
         4927   3.37076e+09
         4928   3.37073e+09
         4929    3.3707e+09
         4930   3.37068e+09
         4931   3.37065e+09
         4932   3.37062e+09
         4933   3.37059e+09
         4934   3.37057e+09
         4935   3.37054e+09
         4936   3.37051e+09
         4937   3.37048e+09
         4938   3.37046e+09
         4939   3.37043e+09
         4940    3.3704e+09
         4941   3.37037e+09
         4942   3.37035e+09
         4943   3.37032e+09
         4944   3.37029e+09
         4945   3.37026e+09
         4946   3.37024e+09
         4947   3.37021e+09
         4948   3.37018e+09
         4949   3.37015e+09
         4950   3.37013e+09
         4951    3.3701e+09
         4952   3.37007e+09
         4953   3.37004e+09
         4954   3.37002e+09
         4955   3.36999e+09
         4956   3.36996e+09
         4957   3.36993e+09
         4958    3.3699e+09
         4959   3.36988e+09
         4960   3.36985e+09
         4961   3.36982e+09
         4962   3.36979e+09
         4963   3.36977e+09
         4964   3.36974e+09
         4965   3.36971e+09
         4966   3.36968e+09
         4967   3.36965e+09
         4968   3.36963e+09
         4969    3.3696e+09
         4970   3.36957e+09
         4971   3.36954e+09
         4972   3.36951e+09
         4973   3.36949e+09
         4974   3.36946e+09
         4975   3.36943e+09
         4976    3.3694e+09
         4977   3.36937e+09
         4978   3.36935e+09
         4979   3.36932e+09
         4980   3.36929e+09
         4981   3.36926e+09
         4982   3.36923e+09
         4983   3.36921e+09
         4984   3.36918e+09
         4985   3.36915e+09
         4986   3.36912e+09
         4987   3.36909e+09
         4988   3.36906e+09
         4989   3.36904e+09
         4990   3.36901e+09
         4991   3.36898e+09
         4992   3.36895e+09
         4993   3.36892e+09
         4994   3.36889e+09
         4995   3.36887e+09
         4996   3.36884e+09
         4997   3.36881e+09
         4998   3.36878e+09
         4999   3.36875e+09
         5000   3.36872e+09
         5001    3.3687e+09
         5002   3.36867e+09
         5003   3.36864e+09
         5004   3.36861e+09
         5005   3.36858e+09
         5006   3.36855e+09
         5007   3.36852e+09
         5008    3.3685e+09
         5009   3.36847e+09
         5010   3.36844e+09
         5011   3.36841e+09
         5012   3.36838e+09
         5013   3.36835e+09
         5014   3.36832e+09
         5015   3.36829e+09
         5016   3.36827e+09
         5017   3.36824e+09
         5018   3.36821e+09
         5019   3.36818e+09
         5020   3.36815e+09
         5021   3.36812e+09
         5022   3.36809e+09
         5023   3.36806e+09
         5024   3.36803e+09
         5025   3.36801e+09
         5026   3.36798e+09
         5027   3.36795e+09
         5028   3.36792e+09
         5029   3.36789e+09
         5030   3.36786e+09
         5031   3.36783e+09
         5032    3.3678e+09
         5033   3.36777e+09
         5034   3.36774e+09
         5035   3.36772e+09
         5036   3.36769e+09
         5037   3.36766e+09
         5038   3.36763e+09
         5039    3.3676e+09
         5040   3.36757e+09
         5041   3.36754e+09
         5042   3.36751e+09
         5043   3.36748e+09
         5044   3.36745e+09
         5045   3.36742e+09
         5046   3.36739e+09
         5047   3.36737e+09
         5048   3.36734e+09
         5049   3.36731e+09
         5050   3.36728e+09
         5051   3.36725e+09
         5052   3.36722e+09
         5053   3.36719e+09
         5054   3.36716e+09
         5055   3.36713e+09
         5056    3.3671e+09
         5057   3.36707e+09
         5058   3.36704e+09
         5059   3.36701e+09
         5060   3.36698e+09
         5061   3.36695e+09
         5062   3.36692e+09
         5063   3.36689e+09
         5064   3.36686e+09
         5065   3.36683e+09
         5066    3.3668e+09
         5067   3.36677e+09
         5068   3.36674e+09
         5069   3.36672e+09
         5070   3.36669e+09
         5071   3.36666e+09
         5072   3.36663e+09
         5073    3.3666e+09
         5074   3.36657e+09
         5075   3.36654e+09
         5076   3.36651e+09
         5077   3.36648e+09
         5078   3.36645e+09
         5079   3.36642e+09
         5080   3.36639e+09
         5081   3.36636e+09
         5082   3.36633e+09
         5083    3.3663e+09
         5084   3.36627e+09
         5085   3.36624e+09
         5086   3.36621e+09
         5087   3.36618e+09
         5088   3.36615e+09
         5089   3.36612e+09
         5090   3.36609e+09
         5091   3.36606e+09
         5092   3.36603e+09
         5093     3.366e+09
         5094   3.36597e+09
         5095   3.36594e+09
         5096   3.36591e+09
         5097   3.36588e+09
         5098   3.36585e+09
         5099   3.36581e+09
         5100   3.36578e+09
         5101   3.36575e+09
         5102   3.36572e+09
         5103   3.36569e+09
         5104   3.36566e+09
         5105   3.36563e+09
         5106    3.3656e+09
         5107   3.36557e+09
         5108   3.36554e+09
         5109   3.36551e+09
         5110   3.36548e+09
         5111   3.36545e+09
         5112   3.36542e+09
         5113   3.36539e+09
         5114   3.36536e+09
         5115   3.36533e+09
         5116    3.3653e+09
         5117   3.36527e+09
         5118   3.36524e+09
         5119   3.36521e+09
         5120   3.36517e+09
         5121   3.36514e+09
         5122   3.36511e+09
         5123   3.36508e+09
         5124   3.36505e+09
         5125   3.36502e+09
         5126   3.36499e+09
         5127   3.36496e+09
         5128   3.36493e+09
         5129    3.3649e+09
         5130   3.36487e+09
         5131   3.36484e+09
         5132    3.3648e+09
         5133   3.36477e+09
         5134   3.36474e+09
         5135   3.36471e+09
         5136   3.36468e+09
         5137   3.36465e+09
         5138   3.36462e+09
         5139   3.36459e+09
         5140   3.36456e+09
         5141   3.36453e+09
         5142   3.36449e+09
         5143   3.36446e+09
         5144   3.36443e+09
         5145    3.3644e+09
         5146   3.36437e+09
         5147   3.36434e+09
         5148   3.36431e+09
         5149   3.36428e+09
         5150   3.36425e+09
         5151   3.36421e+09
         5152   3.36418e+09
         5153   3.36415e+09
         5154   3.36412e+09
         5155   3.36409e+09
         5156   3.36406e+09
         5157   3.36403e+09
         5158   3.36399e+09
         5159   3.36396e+09
         5160   3.36393e+09
         5161    3.3639e+09
         5162   3.36387e+09
         5163   3.36384e+09
         5164   3.36381e+09
         5165   3.36377e+09
         5166   3.36374e+09
         5167   3.36371e+09
         5168   3.36368e+09
         5169   3.36365e+09
         5170   3.36362e+09
         5171   3.36358e+09
         5172   3.36355e+09
         5173   3.36352e+09
         5174   3.36349e+09
         5175   3.36346e+09
         5176   3.36343e+09
         5177   3.36339e+09
         5178   3.36336e+09
         5179   3.36333e+09
         5180    3.3633e+09
         5181   3.36327e+09
         5182   3.36324e+09
         5183    3.3632e+09
         5184   3.36317e+09
         5185   3.36314e+09
         5186   3.36311e+09
         5187   3.36308e+09
         5188   3.36304e+09
         5189   3.36301e+09
         5190   3.36298e+09
         5191   3.36295e+09
         5192   3.36292e+09
         5193   3.36288e+09
         5194   3.36285e+09
         5195   3.36282e+09
         5196   3.36279e+09
         5197   3.36275e+09
         5198   3.36272e+09
         5199   3.36269e+09
         5200   3.36266e+09
         5201   3.36263e+09
         5202   3.36259e+09
         5203   3.36256e+09
         5204   3.36253e+09
         5205    3.3625e+09
         5206   3.36246e+09
         5207   3.36243e+09
         5208    3.3624e+09
         5209   3.36237e+09
         5210   3.36233e+09
         5211    3.3623e+09
         5212   3.36227e+09
         5213   3.36224e+09
         5214   3.36221e+09
         5215   3.36217e+09
         5216   3.36214e+09
         5217   3.36211e+09
         5218   3.36207e+09
         5219   3.36204e+09
         5220   3.36201e+09
         5221   3.36198e+09
         5222   3.36194e+09
         5223   3.36191e+09
         5224   3.36188e+09
         5225   3.36185e+09
         5226   3.36181e+09
         5227   3.36178e+09
         5228   3.36175e+09
         5229   3.36172e+09
         5230   3.36168e+09
         5231   3.36165e+09
         5232   3.36162e+09
         5233   3.36158e+09
         5234   3.36155e+09
         5235   3.36152e+09
         5236   3.36149e+09
         5237   3.36145e+09
         5238   3.36142e+09
         5239   3.36139e+09
         5240   3.36135e+09
         5241   3.36132e+09
         5242   3.36129e+09
         5243   3.36125e+09
         5244   3.36122e+09
         5245   3.36119e+09
         5246   3.36115e+09