# Probe 0 (0.05 0.05 0.005)
#       Probe             0
#        Time
         4179       194.304
         4180       194.289
         4181       194.273
         4182       194.258
         4183       194.242
         4184       194.227
         4185       194.211
         4186       194.196
         4187        194.18
         4188       194.165
         4189       194.149
         4190       194.134
         4191       194.118
         4192       194.103
         4193       194.087
         4194       194.071
         4195       194.056
         4196        194.04
         4197       194.025
         4198       194.009
         4199       193.993
         4200       193.978
         4201       193.962
         4202       193.946
         4203       193.931
         4204       193.915
         4205       193.899
         4206       193.884
         4207       193.868
         4208       193.852
         4209       193.836
         4210       193.821
         4211       193.805
         4212       193.789
         4213       193.773
         4214       193.758
         4215       193.742
         4216       193.726
         4217        193.71
         4218       193.694
         4219       193.678
         4220       193.663
         4221       193.647
         4222       193.631
         4223       193.615
         4224       193.599
         4225       193.583
         4226       193.567
         4227       193.551
         4228       193.536
         4229        193.52
         4230       193.504
         4231       193.488
         4232       193.472
         4233       193.456
         4234        193.44
         4235       193.424
         4236       193.408
         4237       193.392
         4238       193.376
         4239        193.36
         4240       193.344
         4241       193.328
         4242       193.312
         4243       193.296
         4244        193.28
         4245       193.263
         4246       193.247
         4247       193.231
         4248       193.215
         4249       193.199
         4250       193.183
         4251       193.167
         4252       193.151
         4253       193.135
         4254       193.118
         4255       193.102
         4256       193.086
         4257        193.07
         4258       193.054
         4259       193.037
         4260       193.021
         4261       193.005
         4262       192.989
         4263       192.972
         4264       192.956
         4265        192.94
         4266       192.924
         4267       192.907
         4268       192.891
         4269       192.875
         4270       192.858
         4271       192.842
         4272       192.826
         4273       192.809
         4274       192.793
         4275       192.777
         4276        192.76
         4277       192.744
         4278       192.727
         4279       192.711
         4280       192.695
         4281       192.678
         4282       192.662
         4283       192.645
         4284       192.629
         4285       192.612
         4286       192.596
         4287        192.58
         4288       192.563
         4289       192.547
         4290        192.53
         4291       192.513
         4292       192.497
         4293        192.48
         4294       192.464
         4295       192.447
         4296       192.431
         4297       192.414
         4298       192.398
         4299       192.381
         4300       192.364
         4301       192.348
         4302       192.331
         4303       192.314
         4304       192.298
         4305       192.281
         4306       192.265
         4307       192.248
         4308       192.231
         4309       192.214
         4310       192.198
         4311       192.181
         4312       192.164
         4313       192.148
         4314       192.131
         4315       192.114
         4316       192.097
         4317       192.081
         4318       192.064
         4319       192.047
         4320        192.03
         4321       192.013
         4322       191.997
         4323        191.98
         4324       191.963
         4325       191.946
         4326       191.929
         4327       191.912
         4328       191.895
         4329       191.879
         4330       191.862
         4331       191.845
         4332       191.828
         4333       191.811
         4334       191.794
         4335       191.777
         4336        191.76
         4337       191.743
         4338       191.726
         4339       191.709
         4340       191.692
         4341       191.675
         4342       191.658
         4343       191.641
         4344       191.624
         4345       191.607
         4346        191.59
         4347       191.573
         4348       191.556
         4349       191.539
         4350       191.522
         4351       191.505
         4352       191.488
         4353        191.47
         4354       191.453
         4355       191.436
         4356       191.419
         4357       191.402
         4358       191.385
         4359       191.367
         4360        191.35
         4361       191.333
         4362       191.316
         4363       191.299
         4364       191.281
         4365       191.264
         4366       191.247
         4367        191.23
         4368       191.212
         4369       191.195
         4370       191.178
         4371       191.161
         4372       191.143
         4373       191.126
         4374       191.109
         4375       191.091
         4376       191.074
         4377       191.057
         4378       191.039
         4379       191.022
         4380       191.004
         4381       190.987
         4382        190.97
         4383       190.952
         4384       190.935
         4385       190.917
         4386         190.9
         4387       190.883
         4388       190.865
         4389       190.848
         4390        190.83
         4391       190.813
         4392       190.795
         4393       190.778
         4394        190.76
         4395       190.743
         4396       190.725
         4397       190.707
         4398        190.69
         4399       190.672
         4400       190.655
         4401       190.637
         4402        190.62
         4403       190.602
         4404       190.584
         4405       190.567
         4406       190.549
         4407       190.531
         4408       190.514
         4409       190.496
         4410       190.478
         4411       190.461
         4412       190.443
         4413       190.425
         4414       190.408
         4415        190.39
         4416       190.372
         4417       190.354
         4418       190.337
         4419       190.319
         4420       190.301
         4421       190.283
         4422       190.266
         4423       190.248
         4424        190.23
         4425       190.212
         4426       190.194
         4427       190.176
         4428       190.159
         4429       190.141
         4430       190.123
         4431       190.105
         4432       190.087
         4433       190.069
         4434       190.051
         4435       190.033
         4436       190.015
         4437       189.997
         4438        189.98
         4439       189.962
         4440       189.944
         4441       189.926
         4442       189.908
         4443        189.89
         4444       189.872
         4445       189.854
         4446       189.836
         4447       189.818
         4448       189.799
         4449       189.781
         4450       189.763
         4451       189.745
         4452       189.727
         4453       189.709
         4454       189.691
         4455       189.673
         4456       189.655
         4457       189.637
         4458       189.618
         4459         189.6
         4460       189.582
         4461       189.564
         4462       189.546
         4463       189.528
         4464       189.509
         4465       189.491
         4466       189.473
         4467       189.455
         4468       189.436
         4469       189.418
         4470         189.4
         4471       189.382
         4472       189.363
         4473       189.345
         4474       189.327
         4475       189.308
         4476        189.29
         4477       189.272
         4478       189.253
         4479       189.235
         4480       189.217
         4481       189.198
         4482        189.18
         4483       189.162
         4484       189.143
         4485       189.125
         4486       189.106
         4487       189.088
         4488       189.069
         4489       189.051
         4490       189.033
         4491       189.014
         4492       188.996
         4493       188.977
         4494       188.959
         4495        188.94
         4496       188.922
         4497       188.903
         4498       188.884
         4499       188.866
         4500       188.847
         4501       188.829
         4502        188.81
         4503       188.792
         4504       188.773
         4505       188.754
         4506       188.736
         4507       188.717
         4508       188.698
         4509        188.68
         4510       188.661
         4511       188.642
         4512       188.624
         4513       188.605
         4514       188.586
         4515       188.568
         4516       188.549
         4517        188.53
         4518       188.511
         4519       188.493
         4520       188.474
         4521       188.455
         4522       188.436
         4523       188.418
         4524       188.399
         4525        188.38
         4526       188.361
         4527       188.342
         4528       188.324
         4529       188.305
         4530       188.286
         4531       188.267
         4532       188.248
         4533       188.229
         4534        188.21
         4535       188.191
         4536       188.172
         4537       188.154
         4538       188.135
         4539       188.116
         4540       188.097
         4541       188.078
         4542       188.059
         4543        188.04
         4544       188.021
         4545       188.002
         4546       187.983
         4547       187.964
         4548       187.945
         4549       187.926
         4550       187.906
         4551       187.887
         4552       187.868
         4553       187.849
         4554        187.83
         4555       187.811
         4556       187.792
         4557       187.773
         4558       187.754
         4559       187.735
         4560       187.715
         4561       187.696
         4562       187.677
         4563       187.658
         4564       187.639
         4565       187.619
         4566         187.6
         4567       187.581
         4568       187.562
         4569       187.542
         4570       187.523
         4571       187.504
         4572       187.485
         4573       187.465
         4574       187.446
         4575       187.427
         4576       187.407
         4577       187.388
         4578       187.369
         4579       187.349
         4580        187.33
         4581       187.311
         4582       187.291
         4583       187.272
         4584       187.253
         4585       187.233
         4586       187.214
         4587       187.194
         4588       187.175
         4589       187.155
         4590       187.136
         4591       187.116
         4592       187.097
         4593       187.077
         4594       187.058
         4595       187.038
         4596       187.019
         4597       186.999
         4598        186.98
         4599        186.96
         4600       186.941
         4601       186.921
         4602       186.902
         4603       186.882
         4604       186.862
         4605       186.843
         4606       186.823
         4607       186.804
         4608       186.784
         4609       186.764
         4610       186.745
         4611       186.725
         4612       186.705
         4613       186.686
         4614       186.666
         4615       186.646
         4616       186.626
         4617       186.607
         4618       186.587
         4619       186.567
         4620       186.547
         4621       186.528
         4622       186.508
         4623       186.488
         4624       186.468
         4625       186.449
         4626       186.429
         4627       186.409
         4628       186.389
         4629       186.369
         4630       186.349
         4631       186.329
         4632        186.31
         4633        186.29
         4634        186.27
         4635        186.25
         4636        186.23
         4637        186.21
         4638        186.19
         4639        186.17
         4640        186.15
         4641        186.13
         4642        186.11
         4643        186.09
         4644        186.07
         4645        186.05
         4646        186.03
         4647        186.01
         4648        185.99
         4649        185.97
         4650        185.95
         4651        185.93
         4652        185.91
         4653        185.89
         4654        185.87
         4655        185.85
         4656       185.829
         4657       185.809
         4658       185.789
         4659       185.769
         4660       185.749
         4661       185.729
         4662       185.708
         4663       185.688
         4664       185.668
         4665       185.648
         4666       185.628
         4667       185.607
         4668       185.587
         4669       185.567
         4670       185.547
         4671       185.526
         4672       185.506
         4673       185.486
         4674       185.466
         4675       185.445
         4676       185.425
         4677       185.405
         4678       185.384
         4679       185.364
         4680       185.344
         4681       185.323
         4682       185.303
         4683       185.282
         4684       185.262
         4685       185.242
         4686       185.221
         4687       185.201
         4688        185.18
         4689        185.16
         4690       185.139
         4691       185.119
         4692       185.098
         4693       185.078
         4694       185.057
         4695       185.037
         4696       185.016
         4697       184.996
         4698       184.975
         4699       184.955
         4700       184.934
         4701       184.914
         4702       184.893
         4703       184.872
         4704       184.852
         4705       184.831
         4706       184.811
         4707        184.79
         4708       184.769
         4709       184.749
         4710       184.728
         4711       184.707
         4712       184.687
         4713       184.666
         4714       184.645
         4715       184.624
         4716       184.604
         4717       184.583
         4718       184.562
         4719       184.542
         4720       184.521
         4721         184.5
         4722       184.479
         4723       184.458
         4724       184.438
         4725       184.417
         4726       184.396
         4727       184.375
         4728       184.354
         4729       184.333
         4730       184.313
         4731       184.292
         4732       184.271
         4733        184.25
         4734       184.229
         4735       184.208
         4736       184.187
         4737       184.166
         4738       184.145
         4739       184.124
         4740       184.103
         4741       184.082
         4742       184.061
         4743        184.04
         4744       184.019
         4745       183.998
         4746       183.977
         4747       183.956
         4748       183.935
         4749       183.914
         4750       183.893
         4751       183.872
         4752       183.851
         4753        183.83
         4754       183.809
         4755       183.788
         4756       183.766
         4757       183.745
         4758       183.724
         4759       183.703
         4760       183.682
         4761       183.661
         4762        183.64
         4763       183.618
         4764       183.597
         4765       183.576
         4766       183.555
         4767       183.533
         4768       183.512
         4769       183.491
         4770        183.47
         4771       183.448
         4772       183.427
         4773       183.406
         4774       183.384
         4775       183.363
         4776       183.342
         4777        183.32
         4778       183.299
         4779       183.278
         4780       183.256
         4781       183.235
         4782       183.214
         4783       183.192
         4784       183.171
         4785       183.149
         4786       183.128
         4787       183.107
         4788       183.085
         4789       183.064
         4790       183.042
         4791       183.021
         4792       182.999
         4793       182.978
         4794       182.956
         4795       182.935
         4796       182.913
         4797       182.892
         4798        182.87
         4799       182.848
         4800       182.827
         4801       182.805
         4802       182.784
         4803       182.762
         4804        182.74
         4805       182.719
         4806       182.697
         4807       182.676
         4808       182.654
         4809       182.632
         4810       182.611
         4811       182.589
         4812       182.567
         4813       182.545
         4814       182.524
         4815       182.502
         4816        182.48
         4817       182.459
         4818       182.437
         4819       182.415
         4820       182.393
         4821       182.371
         4822        182.35
         4823       182.328
         4824       182.306
         4825       182.284
         4826       182.262
         4827       182.241
         4828       182.219
         4829       182.197
         4830       182.175
         4831       182.153
         4832       182.131
         4833       182.109
         4834       182.087
         4835       182.065
         4836       182.044
         4837       182.022
         4838           182
         4839       181.978
         4840       181.956
         4841       181.934
         4842       181.912
         4843        181.89
         4844       181.868
         4845       181.846
         4846       181.824
         4847       181.802
         4848       181.779
         4849       181.757
         4850       181.735
         4851       181.713
         4852       181.691
         4853       181.669
         4854       181.647
         4855       181.625
         4856       181.603
         4857       181.581
         4858       181.558
         4859       181.536
         4860       181.514
         4861       181.492
         4862        181.47
         4863       181.447
         4864       181.425
         4865       181.403
         4866       181.381
         4867       181.358
         4868       181.336
         4869       181.314
         4870       181.292
         4871       181.269
         4872       181.247
         4873       181.225
         4874       181.202
         4875        181.18
         4876       181.158
         4877       181.135
         4878       181.113
         4879       181.091
         4880       181.068
         4881       181.046
         4882       181.024
         4883       181.001
         4884       180.979
         4885       180.956
         4886       180.934
         4887       180.911
         4888       180.889
         4889       180.866
         4890       180.844
         4891       180.821
         4892       180.799
         4893       180.776
         4894       180.754
         4895       180.731
         4896       180.709
         4897       180.686
         4898       180.664
         4899       180.641
         4900       180.619
         4901       180.596
         4902       180.573
         4903       180.551
         4904       180.528
         4905       180.506
         4906       180.483
         4907        180.46
         4908       180.438
         4909       180.415
         4910       180.392
         4911       180.369
         4912       180.347
         4913       180.324
         4914       180.301
         4915       180.279
         4916       180.256
         4917       180.233
         4918        180.21
         4919       180.188
         4920       180.165
         4921       180.142
         4922       180.119
         4923       180.096
         4924       180.074
         4925       180.051
         4926       180.028
         4927       180.005
         4928       179.982
         4929       179.959
         4930       179.936
         4931       179.914
         4932       179.891
         4933       179.868
         4934       179.845
         4935       179.822
         4936       179.799
         4937       179.776
         4938       179.753
         4939        179.73
         4940       179.707
         4941       179.684
         4942       179.661
         4943       179.638
         4944       179.615
         4945       179.592
         4946       179.569
         4947       179.546
         4948       179.523
         4949         179.5
         4950       179.477
         4951       179.453
         4952        179.43
         4953       179.407
         4954       179.384
         4955       179.361
         4956       179.338
         4957       179.315
         4958       179.292
         4959       179.268
         4960       179.245
         4961       179.222
         4962       179.199
         4963       179.176
         4964       179.152
         4965       179.129
         4966       179.106
         4967       179.083
         4968       179.059
         4969       179.036
         4970       179.013
         4971       178.989
         4972       178.966
         4973       178.943
         4974       178.919
         4975       178.896
         4976       178.873
         4977       178.849
         4978       178.826
         4979       178.803
         4980       178.779
         4981       178.756
         4982       178.732
         4983       178.709
         4984       178.686
         4985       178.662
         4986       178.639
         4987       178.615
         4988       178.592
         4989       178.568
         4990       178.545
         4991       178.521
         4992       178.498
         4993       178.474
         4994       178.451
         4995       178.427
         4996       178.404
         4997        178.38
         4998       178.357
         4999       178.333
         5000       178.309
         5001       178.286
         5002       178.262
         5003       178.239
         5004       178.215
         5005       178.191
         5006       178.168
         5007       178.144
         5008        178.12
         5009       178.097
         5010       178.073
         5011       178.049
         5012       178.026
         5013       178.002
         5014       177.978
         5015       177.954
         5016       177.931
         5017       177.907
         5018       177.883
         5019       177.859
         5020       177.835
         5021       177.812
         5022       177.788
         5023       177.764
         5024        177.74
         5025       177.716
         5026       177.692
         5027       177.669
         5028       177.645
         5029       177.621
         5030       177.597
         5031       177.573
         5032       177.549
         5033       177.525
         5034       177.501
         5035       177.477
         5036       177.453
         5037       177.429
         5038       177.405
         5039       177.382
         5040       177.358
         5041       177.334
         5042        177.31
         5043       177.285
         5044       177.261
         5045       177.237
         5046       177.213
         5047       177.189
         5048       177.165
         5049       177.141
         5050       177.117
         5051       177.093
         5052       177.069
         5053       177.045
         5054       177.021
         5055       176.996
         5056       176.972
         5057       176.948
         5058       176.924
         5059         176.9
         5060       176.876
         5061       176.851
         5062       176.827
         5063       176.803
         5064       176.779
         5065       176.754
         5066        176.73
         5067       176.706
         5068       176.682
         5069       176.657
         5070       176.633
         5071       176.609
         5072       176.584
         5073        176.56
         5074       176.536
         5075       176.511
         5076       176.487
         5077       176.463
         5078       176.438
         5079       176.414
         5080        176.39
         5081       176.365
         5082       176.341
         5083       176.316
         5084       176.292
         5085       176.268
         5086       176.243
         5087       176.219
         5088       176.194
         5089        176.17
         5090       176.145
         5091       176.121
         5092       176.096
         5093       176.072
         5094       176.047
         5095       176.023
         5096       175.998
         5097       175.973
         5098       175.949
         5099       175.924
         5100         175.9
         5101       175.875
         5102        175.85
         5103       175.826
         5104       175.801
         5105       175.777
         5106       175.752
         5107       175.727
         5108       175.703
         5109       175.678
         5110       175.653
         5111       175.629
         5112       175.604
         5113       175.579
         5114       175.554
         5115        175.53
         5116       175.505
         5117        175.48
         5118       175.455
         5119       175.431
         5120       175.406
         5121       175.381
         5122       175.356
         5123       175.331
         5124       175.306
         5125       175.282
         5126       175.257
         5127       175.232
         5128       175.207
         5129       175.182
         5130       175.157
         5131       175.132
         5132       175.107
         5133       175.083
         5134       175.058
         5135       175.033
         5136       175.008
         5137       174.983
         5138       174.958
         5139       174.933
         5140       174.908
         5141       174.883
         5142       174.858
         5143       174.833
         5144       174.808
         5145       174.783
         5146       174.758
         5147       174.733
         5148       174.708
         5149       174.682
         5150       174.657
         5151       174.632
         5152       174.607
         5153       174.582
         5154       174.557
         5155       174.532
         5156       174.507
         5157       174.481
         5158       174.456
         5159       174.431
         5160       174.406
         5161       174.381
         5162       174.356
         5163        174.33
         5164       174.305
         5165        174.28
         5166       174.255
         5167       174.229
         5168       174.204
         5169       174.179
         5170       174.154
         5171       174.128
         5172       174.103
         5173       174.078
         5174       174.052
         5175       174.027
         5176       174.002
         5177       173.976
         5178       173.951
         5179       173.925
         5180         173.9
         5181       173.875
         5182       173.849
         5183       173.824
         5184       173.798
         5185       173.773
         5186       173.748
         5187       173.722
         5188       173.697
         5189       173.671
         5190       173.646
         5191        173.62
         5192       173.595
         5193       173.569
         5194       173.544
         5195       173.518
         5196       173.493
         5197       173.467
         5198       173.441
         5199       173.416
         5200        173.39
         5201       173.365
         5202       173.339
         5203       173.313
         5204       173.288
         5205       173.262
         5206       173.237
         5207       173.211
         5208       173.185
         5209        173.16
         5210       173.134
         5211       173.108
         5212       173.083
         5213       173.057
         5214       173.031
         5215       173.005
         5216        172.98
         5217       172.954
         5218       172.928
         5219       172.902
         5220       172.877
         5221       172.851
         5222       172.825
         5223       172.799
         5224       172.773
         5225       172.747
         5226       172.722
         5227       172.696
         5228        172.67
         5229       172.644
         5230       172.618
         5231       172.592
         5232       172.566
         5233        172.54
         5234       172.515
         5235       172.489
         5236       172.463
         5237       172.437
         5238       172.411
         5239       172.385
         5240       172.359
         5241       172.333
         5242       172.307
         5243       172.281
         5244       172.255
         5245       172.229
         5246       172.203