# Probe 0 (0.05 0.05 0.005)
#       Probe             0
#        Time
         4179    0.00791525
         4180    0.00791462
         4181    0.00791399
         4182    0.00791336
         4183    0.00791273
         4184     0.0079121
         4185    0.00791147
         4186    0.00791084
         4187     0.0079102
         4188    0.00790957
         4189    0.00790894
         4190     0.0079083
         4191    0.00790767
         4192    0.00790703
         4193     0.0079064
         4194    0.00790576
         4195    0.00790513
         4196    0.00790449
         4197    0.00790386
         4198    0.00790322
         4199    0.00790258
         4200    0.00790194
         4201    0.00790131
         4202    0.00790067
         4203    0.00790003
         4204    0.00789939
         4205    0.00789875
         4206    0.00789811
         4207    0.00789747
         4208    0.00789683
         4209    0.00789619
         4210    0.00789555
         4211     0.0078949
         4212    0.00789426
         4213    0.00789362
         4214    0.00789298
         4215    0.00789233
         4216    0.00789169
         4217    0.00789105
         4218     0.0078904
         4219    0.00788976
         4220    0.00788911
         4221    0.00788846
         4222    0.00788782
         4223    0.00788717
         4224    0.00788653
         4225    0.00788588
         4226    0.00788523
         4227    0.00788458
         4228    0.00788393
         4229    0.00788328
         4230    0.00788264
         4231    0.00788199
         4232    0.00788134
         4233    0.00788069
         4234    0.00788003
         4235    0.00787938
         4236    0.00787873
         4237    0.00787808
         4238    0.00787743
         4239    0.00787678
         4240    0.00787612
         4241    0.00787547
         4242    0.00787481
         4243    0.00787416
         4244    0.00787351
         4245    0.00787285
         4246     0.0078722
         4247    0.00787154
         4248    0.00787088
         4249    0.00787023
         4250    0.00786957
         4251    0.00786891
         4252    0.00786825
         4253     0.0078676
         4254    0.00786694
         4255    0.00786628
         4256    0.00786562
         4257    0.00786496
         4258     0.0078643
         4259    0.00786364
         4260    0.00786298
         4261    0.00786232
         4262    0.00786166
         4263    0.00786099
         4264    0.00786033
         4265    0.00785967
         4266    0.00785901
         4267    0.00785834
         4268    0.00785768
         4269    0.00785701
         4270    0.00785635
         4271    0.00785568
         4272    0.00785502
         4273    0.00785435
         4274    0.00785369
         4275    0.00785302
         4276    0.00785235
         4277    0.00785168
         4278    0.00785102
         4279    0.00785035
         4280    0.00784968
         4281    0.00784901
         4282    0.00784834
         4283    0.00784767
         4284      0.007847
         4285    0.00784633
         4286    0.00784566
         4287    0.00784499
         4288    0.00784432
         4289    0.00784364
         4290    0.00784297
         4291     0.0078423
         4292    0.00784163
         4293    0.00784095
         4294    0.00784028
         4295     0.0078396
         4296    0.00783893
         4297    0.00783825
         4298    0.00783758
         4299     0.0078369
         4300    0.00783622
         4301    0.00783555
         4302    0.00783487
         4303    0.00783419
         4304    0.00783351
         4305    0.00783284
         4306    0.00783216
         4307    0.00783148
         4308     0.0078308
         4309    0.00783012
         4310    0.00782944
         4311    0.00782876
         4312    0.00782808
         4313    0.00782739
         4314    0.00782671
         4315    0.00782603
         4316    0.00782535
         4317    0.00782466
         4318    0.00782398
         4319     0.0078233
         4320    0.00782261
         4321    0.00782193
         4322    0.00782124
         4323    0.00782056
         4324    0.00781987
         4325    0.00781918
         4326     0.0078185
         4327    0.00781781
         4328    0.00781712
         4329    0.00781643
         4330    0.00781575
         4331    0.00781506
         4332    0.00781437
         4333    0.00781368
         4334    0.00781299
         4335     0.0078123
         4336    0.00781161
         4337    0.00781092
         4338    0.00781023
         4339    0.00780953
         4340    0.00780884
         4341    0.00780815
         4342    0.00780746
         4343    0.00780676
         4344    0.00780607
         4345    0.00780537
         4346    0.00780468
         4347    0.00780399
         4348    0.00780329
         4349    0.00780259
         4350     0.0078019
         4351     0.0078012
         4352     0.0078005
         4353    0.00779981
         4354    0.00779911
         4355    0.00779841
         4356    0.00779771
         4357    0.00779701
         4358    0.00779631
         4359    0.00779561
         4360    0.00779491
         4361    0.00779421
         4362    0.00779351
         4363    0.00779281
         4364    0.00779211
         4365    0.00779141
         4366     0.0077907
         4367       0.00779
         4368     0.0077893
         4369    0.00778859
         4370    0.00778789
         4371    0.00778719
         4372    0.00778648
         4373    0.00778578
         4374    0.00778507
         4375    0.00778436
         4376    0.00778366
         4377    0.00778295
         4378    0.00778224
         4379    0.00778154
         4380    0.00778083
         4381    0.00778012
         4382    0.00777941
         4383     0.0077787
         4384    0.00777799
         4385    0.00777728
         4386    0.00777657
         4387    0.00777586
         4388    0.00777515
         4389    0.00777444
         4390    0.00777372
         4391    0.00777301
         4392     0.0077723
         4393    0.00777159
         4394    0.00777087
         4395    0.00777016
         4396    0.00776944
         4397    0.00776873
         4398    0.00776801
         4399     0.0077673
         4400    0.00776658
         4401    0.00776587
         4402    0.00776515
         4403    0.00776443
         4404    0.00776371
         4405      0.007763
         4406    0.00776228
         4407    0.00776156
         4408    0.00776084
         4409    0.00776012
         4410     0.0077594
         4411    0.00775868
         4412    0.00775796
         4413    0.00775724
         4414    0.00775651
         4415    0.00775579
         4416    0.00775507
         4417    0.00775435
         4418    0.00775362
         4419     0.0077529
         4420    0.00775218
         4421    0.00775145
         4422    0.00775073
         4423       0.00775
         4424    0.00774928
         4425    0.00774855
         4426    0.00774782
         4427     0.0077471
         4428    0.00774637
         4429    0.00774564
         4430    0.00774491
         4431    0.00774419
         4432    0.00774346
         4433    0.00774273
         4434      0.007742
         4435    0.00774127
         4436    0.00774054
         4437    0.00773981
         4438    0.00773908
         4439    0.00773834
         4440    0.00773761
         4441    0.00773688
         4442    0.00773615
         4443    0.00773541
         4444    0.00773468
         4445    0.00773395
         4446    0.00773321
         4447    0.00773248
         4448    0.00773174
         4449    0.00773101
         4450    0.00773027
         4451    0.00772953
         4452     0.0077288
         4453    0.00772806
         4454    0.00772732
         4455    0.00772658
         4456    0.00772584
         4457    0.00772511
         4458    0.00772437
         4459    0.00772363
         4460    0.00772289
         4461    0.00772215
         4462     0.0077214
         4463    0.00772066
         4464    0.00771992
         4465    0.00771918
         4466    0.00771844
         4467    0.00771769
         4468    0.00771695
         4469    0.00771621
         4470    0.00771546
         4471    0.00771472
         4472    0.00771397
         4473    0.00771323
         4474    0.00771248
         4475    0.00771174
         4476    0.00771099
         4477    0.00771024
         4478     0.0077095
         4479    0.00770875
         4480      0.007708
         4481    0.00770725
         4482     0.0077065
         4483    0.00770575
         4484      0.007705
         4485    0.00770425
         4486     0.0077035
         4487    0.00770275
         4488      0.007702
         4489    0.00770125
         4490     0.0077005
         4491    0.00769974
         4492    0.00769899
         4493    0.00769824
         4494    0.00769748
         4495    0.00769673
         4496    0.00769598
         4497    0.00769522
         4498    0.00769446
         4499    0.00769371
         4500    0.00769295
         4501     0.0076922
         4502    0.00769144
         4503    0.00769068
         4504    0.00768992
         4505    0.00768917
         4506    0.00768841
         4507    0.00768765
         4508    0.00768689
         4509    0.00768613
         4510    0.00768537
         4511    0.00768461
         4512    0.00768385
         4513    0.00768309
         4514    0.00768232
         4515    0.00768156
         4516     0.0076808
         4517    0.00768004
         4518    0.00767927
         4519    0.00767851
         4520    0.00767774
         4521    0.00767698
         4522    0.00767621
         4523    0.00767545
         4524    0.00767468
         4525    0.00767392
         4526    0.00767315
         4527    0.00767238
         4528    0.00767162
         4529    0.00767085
         4530    0.00767008
         4531    0.00766931
         4532    0.00766854
         4533    0.00766777
         4534      0.007667
         4535    0.00766623
         4536    0.00766546
         4537    0.00766469
         4538    0.00766392
         4539    0.00766315
         4540    0.00766237
         4541     0.0076616
         4542    0.00766083
         4543    0.00766005
         4544    0.00765928
         4545    0.00765851
         4546    0.00765773
         4547    0.00765696
         4548    0.00765618
         4549     0.0076554
         4550    0.00765463
         4551    0.00765385
         4552    0.00765307
         4553     0.0076523
         4554    0.00765152
         4555    0.00765074
         4556    0.00764996
         4557    0.00764918
         4558     0.0076484
         4559    0.00764762
         4560    0.00764684
         4561    0.00764606
         4562    0.00764528
         4563     0.0076445
         4564    0.00764371
         4565    0.00764293
         4566    0.00764215
         4567    0.00764137
         4568    0.00764058
         4569     0.0076398
         4570    0.00763901
         4571    0.00763823
         4572    0.00763744
         4573    0.00763666
         4574    0.00763587
         4575    0.00763508
         4576     0.0076343
         4577    0.00763351
         4578    0.00763272
         4579    0.00763193
         4580    0.00763114
         4581    0.00763036
         4582    0.00762957
         4583    0.00762878
         4584    0.00762799
         4585     0.0076272
         4586     0.0076264
         4587    0.00762561
         4588    0.00762482
         4589    0.00762403
         4590    0.00762324
         4591    0.00762244
         4592    0.00762165
         4593    0.00762086
         4594    0.00762006
         4595    0.00761927
         4596    0.00761847
         4597    0.00761768
         4598    0.00761688
         4599    0.00761608
         4600    0.00761529
         4601    0.00761449
         4602    0.00761369
         4603    0.00761289
         4604     0.0076121
         4605     0.0076113
         4606     0.0076105
         4607     0.0076097
         4608     0.0076089
         4609     0.0076081
         4610     0.0076073
         4611     0.0076065
         4612    0.00760569
         4613    0.00760489
         4614    0.00760409
         4615    0.00760329
         4616    0.00760248
         4617    0.00760168
         4618    0.00760087
         4619    0.00760007
         4620    0.00759927
         4621    0.00759846
         4622    0.00759765
         4623    0.00759685
         4624    0.00759604
         4625    0.00759523
         4626    0.00759443
         4627    0.00759362
         4628    0.00759281
         4629      0.007592
         4630    0.00759119
         4631    0.00759038
         4632    0.00758957
         4633    0.00758876
         4634    0.00758795
         4635    0.00758714
         4636    0.00758633
         4637    0.00758552
         4638    0.00758471
         4639    0.00758389
         4640    0.00758308
         4641    0.00758227
         4642    0.00758145
         4643    0.00758064
         4644    0.00757982
         4645    0.00757901
         4646    0.00757819
         4647    0.00757738
         4648    0.00757656
         4649    0.00757574
         4650    0.00757493
         4651    0.00757411
         4652    0.00757329
         4653    0.00757247
         4654    0.00757165
         4655    0.00757083
         4656    0.00757002
         4657    0.00756919
         4658    0.00756837
         4659    0.00756755
         4660    0.00756673
         4661    0.00756591
         4662    0.00756509
         4663    0.00756427
         4664    0.00756344
         4665    0.00756262
         4666     0.0075618
         4667    0.00756097
         4668    0.00756015
         4669    0.00755932
         4670     0.0075585
         4671    0.00755767
         4672    0.00755684
         4673    0.00755602
         4674    0.00755519
         4675    0.00755436
         4676    0.00755354
         4677    0.00755271
         4678    0.00755188
         4679    0.00755105
         4680    0.00755022
         4681    0.00754939
         4682    0.00754856
         4683    0.00754773
         4684     0.0075469
         4685    0.00754607
         4686    0.00754523
         4687     0.0075444
         4688    0.00754357
         4689    0.00754274
         4690     0.0075419
         4691    0.00754107
         4692    0.00754023
         4693     0.0075394
         4694    0.00753856
         4695    0.00753773
         4696    0.00753689
         4697    0.00753606
         4698    0.00753522
         4699    0.00753438
         4700    0.00753354
         4701    0.00753271
         4702    0.00753187
         4703    0.00753103
         4704    0.00753019
         4705    0.00752935
         4706    0.00752851
         4707    0.00752767
         4708    0.00752683
         4709    0.00752599
         4710    0.00752514
         4711     0.0075243
         4712    0.00752346
         4713    0.00752262
         4714    0.00752177
         4715    0.00752093
         4716    0.00752009
         4717    0.00751924
         4718     0.0075184
         4719    0.00751755
         4720     0.0075167
         4721    0.00751586
         4722    0.00751501
         4723    0.00751416
         4724    0.00751332
         4725    0.00751247
         4726    0.00751162
         4727    0.00751077
         4728    0.00750992
         4729    0.00750907
         4730    0.00750822
         4731    0.00750737
         4732    0.00750652
         4733    0.00750567
         4734    0.00750482
         4735    0.00750397
         4736    0.00750311
         4737    0.00750226
         4738    0.00750141
         4739    0.00750055
         4740     0.0074997
         4741    0.00749885
         4742    0.00749799
         4743    0.00749714
         4744    0.00749628
         4745    0.00749542
         4746    0.00749457
         4747    0.00749371
         4748    0.00749285
         4749    0.00749199
         4750    0.00749114
         4751    0.00749028
         4752    0.00748942
         4753    0.00748856
         4754     0.0074877
         4755    0.00748684
         4756    0.00748598
         4757    0.00748512
         4758    0.00748426
         4759    0.00748339
         4760    0.00748253
         4761    0.00748167
         4762    0.00748081
         4763    0.00747994
         4764    0.00747908
         4765    0.00747821
         4766    0.00747735
         4767    0.00747648
         4768    0.00747562
         4769    0.00747475
         4770    0.00747389
         4771    0.00747302
         4772    0.00747215
         4773    0.00747128
         4774    0.00747042
         4775    0.00746955
         4776    0.00746868
         4777    0.00746781
         4778    0.00746694
         4779    0.00746607
         4780     0.0074652
         4781    0.00746433
         4782    0.00746346
         4783    0.00746258
         4784    0.00746171
         4785    0.00746084
         4786    0.00745997
         4787    0.00745909
         4788    0.00745822
         4789    0.00745734
         4790    0.00745647
         4791    0.00745559
         4792    0.00745472
         4793    0.00745384
         4794    0.00745297
         4795    0.00745209
         4796    0.00745121
         4797    0.00745034
         4798    0.00744946
         4799    0.00744858
         4800     0.0074477
         4801    0.00744682
         4802    0.00744594
         4803    0.00744506
         4804    0.00744418
         4805     0.0074433
         4806    0.00744242
         4807    0.00744154
         4808    0.00744066
         4809    0.00743977
         4810    0.00743889
         4811    0.00743801
         4812    0.00743712
         4813    0.00743624
         4814    0.00743535
         4815    0.00743447
         4816    0.00743358
         4817     0.0074327
         4818    0.00743181
         4819    0.00743093
         4820    0.00743004
         4821    0.00742915
         4822    0.00742826
         4823    0.00742737
         4824    0.00742649
         4825     0.0074256
         4826    0.00742471
         4827    0.00742382
         4828    0.00742293
         4829    0.00742204
         4830    0.00742115
         4831    0.00742025
         4832    0.00741936
         4833    0.00741847
         4834    0.00741758
         4835    0.00741668
         4836    0.00741579
         4837     0.0074149
         4838      0.007414
         4839    0.00741311
         4840    0.00741221
         4841    0.00741132
         4842    0.00741042
         4843    0.00740952
         4844    0.00740863
         4845    0.00740773
         4846    0.00740683
         4847    0.00740593
         4848    0.00740503
         4849    0.00740414
         4850    0.00740324
         4851    0.00740234
         4852    0.00740144
         4853    0.00740054
         4854    0.00739963
         4855    0.00739873
         4856    0.00739783
         4857    0.00739693
         4858    0.00739603
         4859    0.00739512
         4860    0.00739422
         4861    0.00739332
         4862    0.00739241
         4863    0.00739151
         4864     0.0073906
         4865     0.0073897
         4866    0.00738879
         4867    0.00738788
         4868    0.00738698
         4869    0.00738607
         4870    0.00738516
         4871    0.00738425
         4872    0.00738335
         4873    0.00738244
         4874    0.00738153
         4875    0.00738062
         4876    0.00737971
         4877     0.0073788
         4878    0.00737789
         4879    0.00737698
         4880    0.00737606
         4881    0.00737515
         4882    0.00737424
         4883    0.00737333
         4884    0.00737241
         4885     0.0073715
         4886    0.00737059
         4887    0.00736967
         4888    0.00736876
         4889    0.00736784
         4890    0.00736692
         4891    0.00736601
         4892    0.00736509
         4893    0.00736417
         4894    0.00736326
         4895    0.00736234
         4896    0.00736142
         4897     0.0073605
         4898    0.00735958
         4899    0.00735866
         4900    0.00735774
         4901    0.00735682
         4902     0.0073559
         4903    0.00735498
         4904    0.00735406
         4905    0.00735314
         4906    0.00735222
         4907    0.00735129
         4908    0.00735037
         4909    0.00734945
         4910    0.00734852
         4911     0.0073476
         4912    0.00734667
         4913    0.00734575
         4914    0.00734482
         4915     0.0073439
         4916    0.00734297
         4917    0.00734204
         4918    0.00734111
         4919    0.00734019
         4920    0.00733926
         4921    0.00733833
         4922     0.0073374
         4923    0.00733647
         4924    0.00733554
         4925    0.00733461
         4926    0.00733368
         4927    0.00733275
         4928    0.00733182
         4929    0.00733089
         4930    0.00732995
         4931    0.00732902
         4932    0.00732809
         4933    0.00732715
         4934    0.00732622
         4935    0.00732529
         4936    0.00732435
         4937    0.00732342
         4938    0.00732248
         4939    0.00732155
         4940    0.00732061
         4941    0.00731967
         4942    0.00731873
         4943     0.0073178
         4944    0.00731686
         4945    0.00731592
         4946    0.00731498
         4947    0.00731404
         4948     0.0073131
         4949    0.00731216
         4950    0.00731122
         4951    0.00731028
         4952    0.00730934
         4953     0.0073084
         4954    0.00730746
         4955    0.00730651
         4956    0.00730557
         4957    0.00730463
         4958    0.00730368
         4959    0.00730274
         4960     0.0073018
         4961    0.00730085
         4962     0.0072999
         4963    0.00729896
         4964    0.00729801
         4965    0.00729707
         4966    0.00729612
         4967    0.00729517
         4968    0.00729422
         4969    0.00729328
         4970    0.00729233
         4971    0.00729138
         4972    0.00729043
         4973    0.00728948
         4974    0.00728853
         4975    0.00728758
         4976    0.00728663
         4977    0.00728567
         4978    0.00728472
         4979    0.00728377
         4980    0.00728282
         4981    0.00728186
         4982    0.00728091
         4983    0.00727996
         4984      0.007279
         4985    0.00727805
         4986    0.00727709
         4987    0.00727614
         4988    0.00727518
         4989    0.00727422
         4990    0.00727327
         4991    0.00727231
         4992    0.00727135
         4993    0.00727039
         4994    0.00726943
         4995    0.00726848
         4996    0.00726752
         4997    0.00726656
         4998     0.0072656
         4999    0.00726464
         5000    0.00726368
         5001    0.00726271
         5002    0.00726175
         5003    0.00726079
         5004    0.00725983
         5005    0.00725886
         5006     0.0072579
         5007    0.00725694
         5008    0.00725597
         5009    0.00725501
         5010    0.00725404
         5011    0.00725308
         5012    0.00725211
         5013    0.00725114
         5014    0.00725018
         5015    0.00724921
         5016    0.00724824
         5017    0.00724728
         5018    0.00724631
         5019    0.00724534
         5020    0.00724437
         5021     0.0072434
         5022    0.00724243
         5023    0.00724146
         5024    0.00724049
         5025    0.00723952
         5026    0.00723855
         5027    0.00723757
         5028     0.0072366
         5029    0.00723563
         5030    0.00723466
         5031    0.00723368
         5032    0.00723271
         5033    0.00723173
         5034    0.00723076
         5035    0.00722978
         5036    0.00722881
         5037    0.00722783
         5038    0.00722685
         5039    0.00722588
         5040     0.0072249
         5041    0.00722392
         5042    0.00722294
         5043    0.00722197
         5044    0.00722099
         5045    0.00722001
         5046    0.00721903
         5047    0.00721805
         5048    0.00721707
         5049    0.00721609
         5050     0.0072151
         5051    0.00721412
         5052    0.00721314
         5053    0.00721216
         5054    0.00721117
         5055    0.00721019
         5056    0.00720921
         5057    0.00720822
         5058    0.00720724
         5059    0.00720625
         5060    0.00720527
         5061    0.00720428
         5062     0.0072033
         5063    0.00720231
         5064    0.00720132
         5065    0.00720033
         5066    0.00719935
         5067    0.00719836
         5068    0.00719737
         5069    0.00719638
         5070    0.00719539
         5071     0.0071944
         5072    0.00719341
         5073    0.00719242
         5074    0.00719143
         5075    0.00719044
         5076    0.00718944
         5077    0.00718845
         5078    0.00718746
         5079    0.00718647
         5080    0.00718547
         5081    0.00718448
         5082    0.00718348
         5083    0.00718249
         5084    0.00718149
         5085     0.0071805
         5086     0.0071795
         5087     0.0071785
         5088    0.00717751
         5089    0.00717651
         5090    0.00717551
         5091    0.00717451
         5092    0.00717352
         5093    0.00717252
         5094    0.00717152
         5095    0.00717052
         5096    0.00716952
         5097    0.00716852
         5098    0.00716752
         5099    0.00716651
         5100    0.00716551
         5101    0.00716451
         5102    0.00716351
         5103     0.0071625
         5104     0.0071615
         5105     0.0071605
         5106    0.00715949
         5107    0.00715849
         5108    0.00715748
         5109    0.00715648
         5110    0.00715547
         5111    0.00715447
         5112    0.00715346
         5113    0.00715245
         5114    0.00715145
         5115    0.00715044
         5116    0.00714943
         5117    0.00714842
         5118    0.00714741
         5119     0.0071464
         5120    0.00714539
         5121    0.00714438
         5122    0.00714337
         5123    0.00714236
         5124    0.00714135
         5125    0.00714034
         5126    0.00713932
         5127    0.00713831
         5128     0.0071373
         5129    0.00713628
         5130    0.00713527
         5131    0.00713426
         5132    0.00713324
         5133    0.00713223
         5134    0.00713121
         5135    0.00713019
         5136    0.00712918
         5137    0.00712816
         5138    0.00712714
         5139    0.00712613
         5140    0.00712511
         5141    0.00712409
         5142    0.00712307
         5143    0.00712205
         5144    0.00712103
         5145    0.00712001
         5146    0.00711899
         5147    0.00711797
         5148    0.00711695
         5149    0.00711593
         5150    0.00711491
         5151    0.00711388
         5152    0.00711286
         5153    0.00711184
         5154    0.00711081
         5155    0.00710979
         5156    0.00710877
         5157    0.00710774
         5158    0.00710671
         5159    0.00710569
         5160    0.00710466
         5161    0.00710364
         5162    0.00710261
         5163    0.00710158
         5164    0.00710055
         5165    0.00709953
         5166     0.0070985
         5167    0.00709747
         5168    0.00709644
         5169    0.00709541
         5170    0.00709438
         5171    0.00709335
         5172    0.00709232
         5173    0.00709129
         5174    0.00709026
         5175    0.00708922
         5176    0.00708819
         5177    0.00708716
         5178    0.00708612
         5179    0.00708509
         5180    0.00708406
         5181    0.00708302
         5182    0.00708199
         5183    0.00708095
         5184    0.00707992
         5185    0.00707888
         5186    0.00707784
         5187    0.00707681
         5188    0.00707577
         5189    0.00707473
         5190    0.00707369
         5191    0.00707265
         5192    0.00707162
         5193    0.00707058
         5194    0.00706954
         5195     0.0070685
         5196    0.00706746
         5197    0.00706641
         5198    0.00706537
         5199    0.00706433
         5200    0.00706329
         5201    0.00706225
         5202     0.0070612
         5203    0.00706016
         5204    0.00705912
         5205    0.00705807
         5206    0.00705703
         5207    0.00705598
         5208    0.00705494
         5209    0.00705389
         5210    0.00705284
         5211     0.0070518
         5212    0.00705075
         5213     0.0070497
         5214    0.00704866
         5215    0.00704761
         5216    0.00704656
         5217    0.00704551
         5218    0.00704446
         5219    0.00704341
         5220    0.00704236
         5221    0.00704131
         5222    0.00704026
         5223    0.00703921
         5224    0.00703816
         5225     0.0070371
         5226    0.00703605
         5227      0.007035
         5228    0.00703394
         5229    0.00703289
         5230    0.00703184
         5231    0.00703078
         5232    0.00702973
         5233    0.00702867
         5234    0.00702762
         5235    0.00702656
         5236     0.0070255
         5237    0.00702445
         5238    0.00702339
         5239    0.00702233
         5240    0.00702127
         5241    0.00702021
         5242    0.00701915
         5243     0.0070181
         5244    0.00701704
         5245    0.00701598
         5246    0.00701491