# Probe 0 (0.05 0.05 0.005)
#       Probe             0
#        Time
         4179       195.304
         4180       195.289
         4181       195.273
         4182       195.258
         4183       195.242
         4184       195.227
         4185       195.211
         4186       195.196
         4187        195.18
         4188       195.165
         4189       195.149
         4190       195.134
         4191       195.118
         4192       195.103
         4193       195.087
         4194       195.071
         4195       195.056
         4196        195.04
         4197       195.025
         4198       195.009
         4199       194.993
         4200       194.978
         4201       194.962
         4202       194.946
         4203       194.931
         4204       194.915
         4205       194.899
         4206       194.884
         4207       194.868
         4208       194.852
         4209       194.836
         4210       194.821
         4211       194.805
         4212       194.789
         4213       194.773
         4214       194.758
         4215       194.742
         4216       194.726
         4217        194.71
         4218       194.694
         4219       194.678
         4220       194.663
         4221       194.647
         4222       194.631
         4223       194.615
         4224       194.599
         4225       194.583
         4226       194.567
         4227       194.551
         4228       194.536
         4229        194.52
         4230       194.504
         4231       194.488
         4232       194.472
         4233       194.456
         4234        194.44
         4235       194.424
         4236       194.408
         4237       194.392
         4238       194.376
         4239        194.36
         4240       194.344
         4241       194.328
         4242       194.312
         4243       194.296
         4244        194.28
         4245       194.263
         4246       194.247
         4247       194.231
         4248       194.215
         4249       194.199
         4250       194.183
         4251       194.167
         4252       194.151
         4253       194.135
         4254       194.118
         4255       194.102
         4256       194.086
         4257        194.07
         4258       194.054
         4259       194.037
         4260       194.021
         4261       194.005
         4262       193.989
         4263       193.972
         4264       193.956
         4265        193.94
         4266       193.924
         4267       193.907
         4268       193.891
         4269       193.875
         4270       193.858
         4271       193.842
         4272       193.826
         4273       193.809
         4274       193.793
         4275       193.777
         4276        193.76
         4277       193.744
         4278       193.727
         4279       193.711
         4280       193.695
         4281       193.678
         4282       193.662
         4283       193.645
         4284       193.629
         4285       193.612
         4286       193.596
         4287        193.58
         4288       193.563
         4289       193.547
         4290        193.53
         4291       193.513
         4292       193.497
         4293        193.48
         4294       193.464
         4295       193.447
         4296       193.431
         4297       193.414
         4298       193.398
         4299       193.381
         4300       193.364
         4301       193.348
         4302       193.331
         4303       193.314
         4304       193.298
         4305       193.281
         4306       193.265
         4307       193.248
         4308       193.231
         4309       193.214
         4310       193.198
         4311       193.181
         4312       193.164
         4313       193.148
         4314       193.131
         4315       193.114
         4316       193.097
         4317       193.081
         4318       193.064
         4319       193.047
         4320        193.03
         4321       193.013
         4322       192.997
         4323        192.98
         4324       192.963
         4325       192.946
         4326       192.929
         4327       192.912
         4328       192.895
         4329       192.879
         4330       192.862
         4331       192.845
         4332       192.828
         4333       192.811
         4334       192.794
         4335       192.777
         4336        192.76
         4337       192.743
         4338       192.726
         4339       192.709
         4340       192.692
         4341       192.675
         4342       192.658
         4343       192.641
         4344       192.624
         4345       192.607
         4346        192.59
         4347       192.573
         4348       192.556
         4349       192.539
         4350       192.522
         4351       192.505
         4352       192.488
         4353        192.47
         4354       192.453
         4355       192.436
         4356       192.419
         4357       192.402
         4358       192.385
         4359       192.367
         4360        192.35
         4361       192.333
         4362       192.316
         4363       192.299
         4364       192.281
         4365       192.264
         4366       192.247
         4367        192.23
         4368       192.212
         4369       192.195
         4370       192.178
         4371       192.161
         4372       192.143
         4373       192.126
         4374       192.109
         4375       192.091
         4376       192.074
         4377       192.057
         4378       192.039
         4379       192.022
         4380       192.004
         4381       191.987
         4382        191.97
         4383       191.952
         4384       191.935
         4385       191.917
         4386         191.9
         4387       191.883
         4388       191.865
         4389       191.848
         4390        191.83
         4391       191.813
         4392       191.795
         4393       191.778
         4394        191.76
         4395       191.743
         4396       191.725
         4397       191.707
         4398        191.69
         4399       191.672
         4400       191.655
         4401       191.637
         4402        191.62
         4403       191.602
         4404       191.584
         4405       191.567
         4406       191.549
         4407       191.531
         4408       191.514
         4409       191.496
         4410       191.478
         4411       191.461
         4412       191.443
         4413       191.425
         4414       191.408
         4415        191.39
         4416       191.372
         4417       191.354
         4418       191.337
         4419       191.319
         4420       191.301
         4421       191.283
         4422       191.266
         4423       191.248
         4424        191.23
         4425       191.212
         4426       191.194
         4427       191.176
         4428       191.159
         4429       191.141
         4430       191.123
         4431       191.105
         4432       191.087
         4433       191.069
         4434       191.051
         4435       191.033
         4436       191.015
         4437       190.997
         4438        190.98
         4439       190.962
         4440       190.944
         4441       190.926
         4442       190.908
         4443        190.89
         4444       190.872
         4445       190.854
         4446       190.836
         4447       190.818
         4448       190.799
         4449       190.781
         4450       190.763
         4451       190.745
         4452       190.727
         4453       190.709
         4454       190.691
         4455       190.673
         4456       190.655
         4457       190.637
         4458       190.618
         4459         190.6
         4460       190.582
         4461       190.564
         4462       190.546
         4463       190.528
         4464       190.509
         4465       190.491
         4466       190.473
         4467       190.455
         4468       190.436
         4469       190.418
         4470         190.4
         4471       190.382
         4472       190.363
         4473       190.345
         4474       190.327
         4475       190.308
         4476        190.29
         4477       190.272
         4478       190.253
         4479       190.235
         4480       190.217
         4481       190.198
         4482        190.18
         4483       190.162
         4484       190.143
         4485       190.125
         4486       190.106
         4487       190.088
         4488       190.069
         4489       190.051
         4490       190.033
         4491       190.014
         4492       189.996
         4493       189.977
         4494       189.959
         4495        189.94
         4496       189.922
         4497       189.903
         4498       189.884
         4499       189.866
         4500       189.847
         4501       189.829
         4502        189.81
         4503       189.792
         4504       189.773
         4505       189.754
         4506       189.736
         4507       189.717
         4508       189.698
         4509        189.68
         4510       189.661
         4511       189.642
         4512       189.624
         4513       189.605
         4514       189.586
         4515       189.568
         4516       189.549
         4517        189.53
         4518       189.511
         4519       189.493
         4520       189.474
         4521       189.455
         4522       189.436
         4523       189.418
         4524       189.399
         4525        189.38
         4526       189.361
         4527       189.342
         4528       189.324
         4529       189.305
         4530       189.286
         4531       189.267
         4532       189.248
         4533       189.229
         4534        189.21
         4535       189.191
         4536       189.172
         4537       189.154
         4538       189.135
         4539       189.116
         4540       189.097
         4541       189.078
         4542       189.059
         4543        189.04
         4544       189.021
         4545       189.002
         4546       188.983
         4547       188.964
         4548       188.945
         4549       188.926
         4550       188.906
         4551       188.887
         4552       188.868
         4553       188.849
         4554        188.83
         4555       188.811
         4556       188.792
         4557       188.773
         4558       188.754
         4559       188.735
         4560       188.715
         4561       188.696
         4562       188.677
         4563       188.658
         4564       188.639
         4565       188.619
         4566         188.6
         4567       188.581
         4568       188.562
         4569       188.542
         4570       188.523
         4571       188.504
         4572       188.485
         4573       188.465
         4574       188.446
         4575       188.427
         4576       188.407
         4577       188.388
         4578       188.369
         4579       188.349
         4580        188.33
         4581       188.311
         4582       188.291
         4583       188.272
         4584       188.253
         4585       188.233
         4586       188.214
         4587       188.194
         4588       188.175
         4589       188.155
         4590       188.136
         4591       188.116
         4592       188.097
         4593       188.077
         4594       188.058
         4595       188.038
         4596       188.019
         4597       187.999
         4598        187.98
         4599        187.96
         4600       187.941
         4601       187.921
         4602       187.902
         4603       187.882
         4604       187.862
         4605       187.843
         4606       187.823
         4607       187.804
         4608       187.784
         4609       187.764
         4610       187.745
         4611       187.725
         4612       187.705
         4613       187.686
         4614       187.666
         4615       187.646
         4616       187.626
         4617       187.607
         4618       187.587
         4619       187.567
         4620       187.547
         4621       187.528
         4622       187.508
         4623       187.488
         4624       187.468
         4625       187.449
         4626       187.429
         4627       187.409
         4628       187.389
         4629       187.369
         4630       187.349
         4631       187.329
         4632        187.31
         4633        187.29
         4634        187.27
         4635        187.25
         4636        187.23
         4637        187.21
         4638        187.19
         4639        187.17
         4640        187.15
         4641        187.13
         4642        187.11
         4643        187.09
         4644        187.07
         4645        187.05
         4646        187.03
         4647        187.01
         4648        186.99
         4649        186.97
         4650        186.95
         4651        186.93
         4652        186.91
         4653        186.89
         4654        186.87
         4655        186.85
         4656       186.829
         4657       186.809
         4658       186.789
         4659       186.769
         4660       186.749
         4661       186.729
         4662       186.708
         4663       186.688
         4664       186.668
         4665       186.648
         4666       186.628
         4667       186.607
         4668       186.587
         4669       186.567
         4670       186.547
         4671       186.526
         4672       186.506
         4673       186.486
         4674       186.466
         4675       186.445
         4676       186.425
         4677       186.405
         4678       186.384
         4679       186.364
         4680       186.344
         4681       186.323
         4682       186.303
         4683       186.282
         4684       186.262
         4685       186.242
         4686       186.221
         4687       186.201
         4688        186.18
         4689        186.16
         4690       186.139
         4691       186.119
         4692       186.098
         4693       186.078
         4694       186.057
         4695       186.037
         4696       186.016
         4697       185.996
         4698       185.975
         4699       185.955
         4700       185.934
         4701       185.914
         4702       185.893
         4703       185.872
         4704       185.852
         4705       185.831
         4706       185.811
         4707        185.79
         4708       185.769
         4709       185.749
         4710       185.728
         4711       185.707
         4712       185.687
         4713       185.666
         4714       185.645
         4715       185.624
         4716       185.604
         4717       185.583
         4718       185.562
         4719       185.542
         4720       185.521
         4721         185.5
         4722       185.479
         4723       185.458
         4724       185.438
         4725       185.417
         4726       185.396
         4727       185.375
         4728       185.354
         4729       185.333
         4730       185.313
         4731       185.292
         4732       185.271
         4733        185.25
         4734       185.229
         4735       185.208
         4736       185.187
         4737       185.166
         4738       185.145
         4739       185.124
         4740       185.103
         4741       185.082
         4742       185.061
         4743        185.04
         4744       185.019
         4745       184.998
         4746       184.977
         4747       184.956
         4748       184.935
         4749       184.914
         4750       184.893
         4751       184.872
         4752       184.851
         4753        184.83
         4754       184.809
         4755       184.788
         4756       184.766
         4757       184.745
         4758       184.724
         4759       184.703
         4760       184.682
         4761       184.661
         4762        184.64
         4763       184.618
         4764       184.597
         4765       184.576
         4766       184.555
         4767       184.533
         4768       184.512
         4769       184.491
         4770        184.47
         4771       184.448
         4772       184.427
         4773       184.406
         4774       184.384
         4775       184.363
         4776       184.342
         4777        184.32
         4778       184.299
         4779       184.278
         4780       184.256
         4781       184.235
         4782       184.214
         4783       184.192
         4784       184.171
         4785       184.149
         4786       184.128
         4787       184.107
         4788       184.085
         4789       184.064
         4790       184.042
         4791       184.021
         4792       183.999
         4793       183.978
         4794       183.956
         4795       183.935
         4796       183.913
         4797       183.892
         4798        183.87
         4799       183.848
         4800       183.827
         4801       183.805
         4802       183.784
         4803       183.762
         4804        183.74
         4805       183.719
         4806       183.697
         4807       183.676
         4808       183.654
         4809       183.632
         4810       183.611
         4811       183.589
         4812       183.567
         4813       183.545
         4814       183.524
         4815       183.502
         4816        183.48
         4817       183.459
         4818       183.437
         4819       183.415
         4820       183.393
         4821       183.371
         4822        183.35
         4823       183.328
         4824       183.306
         4825       183.284
         4826       183.262
         4827       183.241
         4828       183.219
         4829       183.197
         4830       183.175
         4831       183.153
         4832       183.131
         4833       183.109
         4834       183.087
         4835       183.065
         4836       183.044
         4837       183.022
         4838           183
         4839       182.978
         4840       182.956
         4841       182.934
         4842       182.912
         4843        182.89
         4844       182.868
         4845       182.846
         4846       182.824
         4847       182.802
         4848       182.779
         4849       182.757
         4850       182.735
         4851       182.713
         4852       182.691
         4853       182.669
         4854       182.647
         4855       182.625
         4856       182.603
         4857       182.581
         4858       182.558
         4859       182.536
         4860       182.514
         4861       182.492
         4862        182.47
         4863       182.447
         4864       182.425
         4865       182.403
         4866       182.381
         4867       182.358
         4868       182.336
         4869       182.314
         4870       182.292
         4871       182.269
         4872       182.247
         4873       182.225
         4874       182.202
         4875        182.18
         4876       182.158
         4877       182.135
         4878       182.113
         4879       182.091
         4880       182.068
         4881       182.046
         4882       182.024
         4883       182.001
         4884       181.979
         4885       181.956
         4886       181.934
         4887       181.911
         4888       181.889
         4889       181.866
         4890       181.844
         4891       181.821
         4892       181.799
         4893       181.776
         4894       181.754
         4895       181.731
         4896       181.709
         4897       181.686
         4898       181.664
         4899       181.641
         4900       181.619
         4901       181.596
         4902       181.573
         4903       181.551
         4904       181.528
         4905       181.506
         4906       181.483
         4907        181.46
         4908       181.438
         4909       181.415
         4910       181.392
         4911       181.369
         4912       181.347
         4913       181.324
         4914       181.301
         4915       181.279
         4916       181.256
         4917       181.233
         4918        181.21
         4919       181.188
         4920       181.165
         4921       181.142
         4922       181.119
         4923       181.096
         4924       181.074
         4925       181.051
         4926       181.028
         4927       181.005
         4928       180.982
         4929       180.959
         4930       180.936
         4931       180.914
         4932       180.891
         4933       180.868
         4934       180.845
         4935       180.822
         4936       180.799
         4937       180.776
         4938       180.753
         4939        180.73
         4940       180.707
         4941       180.684
         4942       180.661
         4943       180.638
         4944       180.615
         4945       180.592
         4946       180.569
         4947       180.546
         4948       180.523
         4949         180.5
         4950       180.477
         4951       180.453
         4952        180.43
         4953       180.407
         4954       180.384
         4955       180.361
         4956       180.338
         4957       180.315
         4958       180.292
         4959       180.268
         4960       180.245
         4961       180.222
         4962       180.199
         4963       180.176
         4964       180.152
         4965       180.129
         4966       180.106
         4967       180.083
         4968       180.059
         4969       180.036
         4970       180.013
         4971       179.989
         4972       179.966
         4973       179.943
         4974       179.919
         4975       179.896
         4976       179.873
         4977       179.849
         4978       179.826
         4979       179.803
         4980       179.779
         4981       179.756
         4982       179.732
         4983       179.709
         4984       179.686
         4985       179.662
         4986       179.639
         4987       179.615
         4988       179.592
         4989       179.568
         4990       179.545
         4991       179.521
         4992       179.498
         4993       179.474
         4994       179.451
         4995       179.427
         4996       179.404
         4997        179.38
         4998       179.357
         4999       179.333
         5000       179.309
         5001       179.286
         5002       179.262
         5003       179.239
         5004       179.215
         5005       179.191
         5006       179.168
         5007       179.144
         5008        179.12
         5009       179.097
         5010       179.073
         5011       179.049
         5012       179.026
         5013       179.002
         5014       178.978
         5015       178.954
         5016       178.931
         5017       178.907
         5018       178.883
         5019       178.859
         5020       178.835
         5021       178.812
         5022       178.788
         5023       178.764
         5024        178.74
         5025       178.716
         5026       178.692
         5027       178.669
         5028       178.645
         5029       178.621
         5030       178.597
         5031       178.573
         5032       178.549
         5033       178.525
         5034       178.501
         5035       178.477
         5036       178.453
         5037       178.429
         5038       178.405
         5039       178.382
         5040       178.358
         5041       178.334
         5042        178.31
         5043       178.285
         5044       178.261
         5045       178.237
         5046       178.213
         5047       178.189
         5048       178.165
         5049       178.141
         5050       178.117
         5051       178.093
         5052       178.069
         5053       178.045
         5054       178.021
         5055       177.996
         5056       177.972
         5057       177.948
         5058       177.924
         5059         177.9
         5060       177.876
         5061       177.851
         5062       177.827
         5063       177.803
         5064       177.779
         5065       177.754
         5066        177.73
         5067       177.706
         5068       177.682
         5069       177.657
         5070       177.633
         5071       177.609
         5072       177.584
         5073        177.56
         5074       177.536
         5075       177.511
         5076       177.487
         5077       177.463
         5078       177.438
         5079       177.414
         5080        177.39
         5081       177.365
         5082       177.341
         5083       177.316
         5084       177.292
         5085       177.268
         5086       177.243
         5087       177.219
         5088       177.194
         5089        177.17
         5090       177.145
         5091       177.121
         5092       177.096
         5093       177.072
         5094       177.047
         5095       177.023
         5096       176.998
         5097       176.973
         5098       176.949
         5099       176.924
         5100         176.9
         5101       176.875
         5102        176.85
         5103       176.826
         5104       176.801
         5105       176.777
         5106       176.752
         5107       176.727
         5108       176.703
         5109       176.678
         5110       176.653
         5111       176.629
         5112       176.604
         5113       176.579
         5114       176.554
         5115        176.53
         5116       176.505
         5117        176.48
         5118       176.455
         5119       176.431
         5120       176.406
         5121       176.381
         5122       176.356
         5123       176.331
         5124       176.306
         5125       176.282
         5126       176.257
         5127       176.232
         5128       176.207
         5129       176.182
         5130       176.157
         5131       176.132
         5132       176.107
         5133       176.083
         5134       176.058
         5135       176.033
         5136       176.008
         5137       175.983
         5138       175.958
         5139       175.933
         5140       175.908
         5141       175.883
         5142       175.858
         5143       175.833
         5144       175.808
         5145       175.783
         5146       175.758
         5147       175.733
         5148       175.708
         5149       175.682
         5150       175.657
         5151       175.632
         5152       175.607
         5153       175.582
         5154       175.557
         5155       175.532
         5156       175.507
         5157       175.481
         5158       175.456
         5159       175.431
         5160       175.406
         5161       175.381
         5162       175.356
         5163        175.33
         5164       175.305
         5165        175.28
         5166       175.255
         5167       175.229
         5168       175.204
         5169       175.179
         5170       175.154
         5171       175.128
         5172       175.103
         5173       175.078
         5174       175.052
         5175       175.027
         5176       175.002
         5177       174.976
         5178       174.951
         5179       174.925
         5180         174.9
         5181       174.875
         5182       174.849
         5183       174.824
         5184       174.798
         5185       174.773
         5186       174.748
         5187       174.722
         5188       174.697
         5189       174.671
         5190       174.646
         5191        174.62
         5192       174.595
         5193       174.569
         5194       174.544
         5195       174.518
         5196       174.493
         5197       174.467
         5198       174.441
         5199       174.416
         5200        174.39
         5201       174.365
         5202       174.339
         5203       174.313
         5204       174.288
         5205       174.262
         5206       174.237
         5207       174.211
         5208       174.185
         5209        174.16
         5210       174.134
         5211       174.108
         5212       174.083
         5213       174.057
         5214       174.031
         5215       174.005
         5216        173.98
         5217       173.954
         5218       173.928
         5219       173.902
         5220       173.877
         5221       173.851
         5222       173.825
         5223       173.799
         5224       173.773
         5225       173.747
         5226       173.722
         5227       173.696
         5228        173.67
         5229       173.644
         5230       173.618
         5231       173.592
         5232       173.566
         5233        173.54
         5234       173.515
         5235       173.489
         5236       173.463
         5237       173.437
         5238       173.411
         5239       173.385
         5240       173.359
         5241       173.333
         5242       173.307
         5243       173.281
         5244       173.255
         5245       173.229
         5246       173.203