# Probe 0 (0.05 0.05 0.005)
#       Probe             0
#        Time
         4179       6.87214
         4180       6.87203
         4181       6.87193
         4182       6.87183
         4183       6.87172
         4184       6.87162
         4185       6.87152
         4186       6.87141
         4187       6.87131
         4188        6.8712
         4189        6.8711
         4190         6.871
         4191       6.87089
         4192       6.87079
         4193       6.87069
         4194       6.87058
         4195       6.87048
         4196       6.87037
         4197       6.87027
         4198       6.87016
         4199       6.87006
         4200       6.86995
         4201       6.86985
         4202       6.86975
         4203       6.86964
         4204       6.86954
         4205       6.86943
         4206       6.86933
         4207       6.86922
         4208       6.86912
         4209       6.86901
         4210        6.8689
         4211        6.8688
         4212       6.86869
         4213       6.86859
         4214       6.86848
         4215       6.86838
         4216       6.86827
         4217       6.86817
         4218       6.86806
         4219       6.86795
         4220       6.86785
         4221       6.86774
         4222       6.86764
         4223       6.86753
         4224       6.86742
         4225       6.86732
         4226       6.86721
         4227        6.8671
         4228         6.867
         4229       6.86689
         4230       6.86678
         4231       6.86668
         4232       6.86657
         4233       6.86646
         4234       6.86636
         4235       6.86625
         4236       6.86614
         4237       6.86603
         4238       6.86593
         4239       6.86582
         4240       6.86571
         4241        6.8656
         4242        6.8655
         4243       6.86539
         4244       6.86528
         4245       6.86517
         4246       6.86507
         4247       6.86496
         4248       6.86485
         4249       6.86474
         4250       6.86463
         4251       6.86452
         4252       6.86442
         4253       6.86431
         4254        6.8642
         4255       6.86409
         4256       6.86398
         4257       6.86387
         4258       6.86376
         4259       6.86366
         4260       6.86355
         4261       6.86344
         4262       6.86333
         4263       6.86322
         4264       6.86311
         4265         6.863
         4266       6.86289
         4267       6.86278
         4268       6.86267
         4269       6.86256
         4270       6.86245
         4271       6.86234
         4272       6.86223
         4273       6.86212
         4274       6.86201
         4275        6.8619
         4276       6.86179
         4277       6.86168
         4278       6.86157
         4279       6.86146
         4280       6.86135
         4281       6.86124
         4282       6.86113
         4283       6.86102
         4284       6.86091
         4285        6.8608
         4286       6.86069
         4287       6.86058
         4288       6.86047
         4289       6.86036
         4290       6.86024
         4291       6.86013
         4292       6.86002
         4293       6.85991
         4294        6.8598
         4295       6.85969
         4296       6.85958
         4297       6.85946
         4298       6.85935
         4299       6.85924
         4300       6.85913
         4301       6.85902
         4302       6.85891
         4303       6.85879
         4304       6.85868
         4305       6.85857
         4306       6.85846
         4307       6.85834
         4308       6.85823
         4309       6.85812
         4310       6.85801
         4311       6.85789
         4312       6.85778
         4313       6.85767
         4314       6.85756
         4315       6.85744
         4316       6.85733
         4317       6.85722
         4318        6.8571
         4319       6.85699
         4320       6.85688
         4321       6.85676
         4322       6.85665
         4323       6.85654
         4324       6.85642
         4325       6.85631
         4326       6.85619
         4327       6.85608
         4328       6.85597
         4329       6.85585
         4330       6.85574
         4331       6.85562
         4332       6.85551
         4333       6.85539
         4334       6.85528
         4335       6.85517
         4336       6.85505
         4337       6.85494
         4338       6.85482
         4339       6.85471
         4340       6.85459
         4341       6.85448
         4342       6.85436
         4343       6.85425
         4344       6.85413
         4345       6.85402
         4346        6.8539
         4347       6.85379
         4348       6.85367
         4349       6.85355
         4350       6.85344
         4351       6.85332
         4352       6.85321
         4353       6.85309
         4354       6.85298
         4355       6.85286
         4356       6.85274
         4357       6.85263
         4358       6.85251
         4359       6.85239
         4360       6.85228
         4361       6.85216
         4362       6.85205
         4363       6.85193
         4364       6.85181
         4365        6.8517
         4366       6.85158
         4367       6.85146
         4368       6.85134
         4369       6.85123
         4370       6.85111
         4371       6.85099
         4372       6.85088
         4373       6.85076
         4374       6.85064
         4375       6.85052
         4376       6.85041
         4377       6.85029
         4378       6.85017
         4379       6.85005
         4380       6.84993
         4381       6.84982
         4382        6.8497
         4383       6.84958
         4384       6.84946
         4385       6.84934
         4386       6.84922
         4387       6.84911
         4388       6.84899
         4389       6.84887
         4390       6.84875
         4391       6.84863
         4392       6.84851
         4393       6.84839
         4394       6.84827
         4395       6.84816
         4396       6.84804
         4397       6.84792
         4398        6.8478
         4399       6.84768
         4400       6.84756
         4401       6.84744
         4402       6.84732
         4403        6.8472
         4404       6.84708
         4405       6.84696
         4406       6.84684
         4407       6.84672
         4408        6.8466
         4409       6.84648
         4410       6.84636
         4411       6.84624
         4412       6.84612
         4413         6.846
         4414       6.84588
         4415       6.84576
         4416       6.84564
         4417       6.84552
         4418       6.84539
         4419       6.84527
         4420       6.84515
         4421       6.84503
         4422       6.84491
         4423       6.84479
         4424       6.84467
         4425       6.84455
         4426       6.84442
         4427        6.8443
         4428       6.84418
         4429       6.84406
         4430       6.84394
         4431       6.84382
         4432       6.84369
         4433       6.84357
         4434       6.84345
         4435       6.84333
         4436       6.84321
         4437       6.84308
         4438       6.84296
         4439       6.84284
         4440       6.84272
         4441       6.84259
         4442       6.84247
         4443       6.84235
         4444       6.84222
         4445        6.8421
         4446       6.84198
         4447       6.84185
         4448       6.84173
         4449       6.84161
         4450       6.84148
         4451       6.84136
         4452       6.84124
         4453       6.84111
         4454       6.84099
         4455       6.84087
         4456       6.84074
         4457       6.84062
         4458       6.84049
         4459       6.84037
         4460       6.84025
         4461       6.84012
         4462          6.84
         4463       6.83987
         4464       6.83975
         4465       6.83962
         4466        6.8395
         4467       6.83937
         4468       6.83925
         4469       6.83913
         4470         6.839
         4471       6.83888
         4472       6.83875
         4473       6.83862
         4474        6.8385
         4475       6.83837
         4476       6.83825
         4477       6.83812
         4478         6.838
         4479       6.83787
         4480       6.83775
         4481       6.83762
         4482       6.83749
         4483       6.83737
         4484       6.83724
         4485       6.83712
         4486       6.83699
         4487       6.83686
         4488       6.83674
         4489       6.83661
         4490       6.83648
         4491       6.83636
         4492       6.83623
         4493        6.8361
         4494       6.83598
         4495       6.83585
         4496       6.83572
         4497        6.8356
         4498       6.83547
         4499       6.83534
         4500       6.83521
         4501       6.83509
         4502       6.83496
         4503       6.83483
         4504        6.8347
         4505       6.83458
         4506       6.83445
         4507       6.83432
         4508       6.83419
         4509       6.83406
         4510       6.83394
         4511       6.83381
         4512       6.83368
         4513       6.83355
         4514       6.83342
         4515       6.83329
         4516       6.83316
         4517       6.83304
         4518       6.83291
         4519       6.83278
         4520       6.83265
         4521       6.83252
         4522       6.83239
         4523       6.83226
         4524       6.83213
         4525         6.832
         4526       6.83187
         4527       6.83174
         4528       6.83161
         4529       6.83148
         4530       6.83135
         4531       6.83122
         4532       6.83109
         4533       6.83096
         4534       6.83083
         4535        6.8307
         4536       6.83057
         4537       6.83044
         4538       6.83031
         4539       6.83018
         4540       6.83005
         4541       6.82992
         4542       6.82979
         4543       6.82966
         4544       6.82953
         4545        6.8294
         4546       6.82927
         4547       6.82913
         4548         6.829
         4549       6.82887
         4550       6.82874
         4551       6.82861
         4552       6.82848
         4553       6.82835
         4554       6.82821
         4555       6.82808
         4556       6.82795
         4557       6.82782
         4558       6.82769
         4559       6.82755
         4560       6.82742
         4561       6.82729
         4562       6.82716
         4563       6.82702
         4564       6.82689
         4565       6.82676
         4566       6.82663
         4567       6.82649
         4568       6.82636
         4569       6.82623
         4570       6.82609
         4571       6.82596
         4572       6.82583
         4573       6.82569
         4574       6.82556
         4575       6.82543
         4576       6.82529
         4577       6.82516
         4578       6.82503
         4579       6.82489
         4580       6.82476
         4581       6.82462
         4582       6.82449
         4583       6.82436
         4584       6.82422
         4585       6.82409
         4586       6.82395
         4587       6.82382
         4588       6.82368
         4589       6.82355
         4590       6.82342
         4591       6.82328
         4592       6.82315
         4593       6.82301
         4594       6.82288
         4595       6.82274
         4596        6.8226
         4597       6.82247
         4598       6.82233
         4599        6.8222
         4600       6.82206
         4601       6.82193
         4602       6.82179
         4603       6.82166
         4604       6.82152
         4605       6.82138
         4606       6.82125
         4607       6.82111
         4608       6.82098
         4609       6.82084
         4610        6.8207
         4611       6.82057
         4612       6.82043
         4613       6.82029
         4614       6.82016
         4615       6.82002
         4616       6.81988
         4617       6.81975
         4618       6.81961
         4619       6.81947
         4620       6.81933
         4621        6.8192
         4622       6.81906
         4623       6.81892
         4624       6.81878
         4625       6.81865
         4626       6.81851
         4627       6.81837
         4628       6.81823
         4629       6.81809
         4630       6.81796
         4631       6.81782
         4632       6.81768
         4633       6.81754
         4634        6.8174
         4635       6.81726
         4636       6.81713
         4637       6.81699
         4638       6.81685
         4639       6.81671
         4640       6.81657
         4641       6.81643
         4642       6.81629
         4643       6.81615
         4644       6.81601
         4645       6.81587
         4646       6.81574
         4647        6.8156
         4648       6.81546
         4649       6.81532
         4650       6.81518
         4651       6.81504
         4652        6.8149
         4653       6.81476
         4654       6.81462
         4655       6.81448
         4656       6.81434
         4657        6.8142
         4658       6.81406
         4659       6.81391
         4660       6.81377
         4661       6.81363
         4662       6.81349
         4663       6.81335
         4664       6.81321
         4665       6.81307
         4666       6.81293
         4667       6.81279
         4668       6.81265
         4669        6.8125
         4670       6.81236
         4671       6.81222
         4672       6.81208
         4673       6.81194
         4674        6.8118
         4675       6.81165
         4676       6.81151
         4677       6.81137
         4678       6.81123
         4679       6.81109
         4680       6.81094
         4681        6.8108
         4682       6.81066
         4683       6.81052
         4684       6.81037
         4685       6.81023
         4686       6.81009
         4687       6.80994
         4688        6.8098
         4689       6.80966
         4690       6.80951
         4691       6.80937
         4692       6.80923
         4693       6.80908
         4694       6.80894
         4695        6.8088
         4696       6.80865
         4697       6.80851
         4698       6.80837
         4699       6.80822
         4700       6.80808
         4701       6.80793
         4702       6.80779
         4703       6.80764
         4704        6.8075
         4705       6.80736
         4706       6.80721
         4707       6.80707
         4708       6.80692
         4709       6.80678
         4710       6.80663
         4711       6.80649
         4712       6.80634
         4713        6.8062
         4714       6.80605
         4715       6.80591
         4716       6.80576
         4717       6.80561
         4718       6.80547
         4719       6.80532
         4720       6.80518
         4721       6.80503
         4722       6.80489
         4723       6.80474
         4724       6.80459
         4725       6.80445
         4726        6.8043
         4727       6.80415
         4728       6.80401
         4729       6.80386
         4730       6.80371
         4731       6.80357
         4732       6.80342
         4733       6.80327
         4734       6.80313
         4735       6.80298
         4736       6.80283
         4737       6.80269
         4738       6.80254
         4739       6.80239
         4740       6.80224
         4741        6.8021
         4742       6.80195
         4743        6.8018
         4744       6.80165
         4745        6.8015
         4746       6.80136
         4747       6.80121
         4748       6.80106
         4749       6.80091
         4750       6.80076
         4751       6.80061
         4752       6.80047
         4753       6.80032
         4754       6.80017
         4755       6.80002
         4756       6.79987
         4757       6.79972
         4758       6.79957
         4759       6.79942
         4760       6.79927
         4761       6.79912
         4762       6.79897
         4763       6.79882
         4764       6.79867
         4765       6.79852
         4766       6.79838
         4767       6.79823
         4768       6.79808
         4769       6.79792
         4770       6.79777
         4771       6.79762
         4772       6.79747
         4773       6.79732
         4774       6.79717
         4775       6.79702
         4776       6.79687
         4777       6.79672
         4778       6.79657
         4779       6.79642
         4780       6.79627
         4781       6.79612
         4782       6.79597
         4783       6.79581
         4784       6.79566
         4785       6.79551
         4786       6.79536
         4787       6.79521
         4788       6.79506
         4789        6.7949
         4790       6.79475
         4791        6.7946
         4792       6.79445
         4793        6.7943
         4794       6.79414
         4795       6.79399
         4796       6.79384
         4797       6.79369
         4798       6.79353
         4799       6.79338
         4800       6.79323
         4801       6.79307
         4802       6.79292
         4803       6.79277
         4804       6.79261
         4805       6.79246
         4806       6.79231
         4807       6.79215
         4808         6.792
         4809       6.79185
         4810       6.79169
         4811       6.79154
         4812       6.79139
         4813       6.79123
         4814       6.79108
         4815       6.79092
         4816       6.79077
         4817       6.79061
         4818       6.79046
         4819        6.7903
         4820       6.79015
         4821          6.79
         4822       6.78984
         4823       6.78969
         4824       6.78953
         4825       6.78938
         4826       6.78922
         4827       6.78906
         4828       6.78891
         4829       6.78875
         4830        6.7886
         4831       6.78844
         4832       6.78829
         4833       6.78813
         4834       6.78798
         4835       6.78782
         4836       6.78766
         4837       6.78751
         4838       6.78735
         4839       6.78719
         4840       6.78704
         4841       6.78688
         4842       6.78672
         4843       6.78657
         4844       6.78641
         4845       6.78625
         4846        6.7861
         4847       6.78594
         4848       6.78578
         4849       6.78563
         4850       6.78547
         4851       6.78531
         4852       6.78515
         4853       6.78499
         4854       6.78484
         4855       6.78468
         4856       6.78452
         4857       6.78436
         4858       6.78421
         4859       6.78405
         4860       6.78389
         4861       6.78373
         4862       6.78357
         4863       6.78341
         4864       6.78325
         4865        6.7831
         4866       6.78294
         4867       6.78278
         4868       6.78262
         4869       6.78246
         4870        6.7823
         4871       6.78214
         4872       6.78198
         4873       6.78182
         4874       6.78166
         4875        6.7815
         4876       6.78134
         4877       6.78118
         4878       6.78102
         4879       6.78086
         4880        6.7807
         4881       6.78054
         4882       6.78038
         4883       6.78022
         4884       6.78006
         4885        6.7799
         4886       6.77974
         4887       6.77958
         4888       6.77942
         4889       6.77926
         4890        6.7791
         4891       6.77894
         4892       6.77877
         4893       6.77861
         4894       6.77845
         4895       6.77829
         4896       6.77813
         4897       6.77797
         4898        6.7778
         4899       6.77764
         4900       6.77748
         4901       6.77732
         4902       6.77716
         4903       6.77699
         4904       6.77683
         4905       6.77667
         4906       6.77651
         4907       6.77634
         4908       6.77618
         4909       6.77602
         4910       6.77586
         4911       6.77569
         4912       6.77553
         4913       6.77537
         4914        6.7752
         4915       6.77504
         4916       6.77488
         4917       6.77471
         4918       6.77455
         4919       6.77439
         4920       6.77422
         4921       6.77406
         4922       6.77389
         4923       6.77373
         4924       6.77357
         4925        6.7734
         4926       6.77324
         4927       6.77307
         4928       6.77291
         4929       6.77274
         4930       6.77258
         4931       6.77241
         4932       6.77225
         4933       6.77208
         4934       6.77192
         4935       6.77175
         4936       6.77159
         4937       6.77142
         4938       6.77126
         4939       6.77109
         4940       6.77092
         4941       6.77076
         4942       6.77059
         4943       6.77043
         4944       6.77026
         4945       6.77009
         4946       6.76993
         4947       6.76976
         4948        6.7696
         4949       6.76943
         4950       6.76926
         4951        6.7691
         4952       6.76893
         4953       6.76876
         4954       6.76859
         4955       6.76843
         4956       6.76826
         4957       6.76809
         4958       6.76793
         4959       6.76776
         4960       6.76759
         4961       6.76742
         4962       6.76726
         4963       6.76709
         4964       6.76692
         4965       6.76675
         4966       6.76658
         4967       6.76641
         4968       6.76625
         4969       6.76608
         4970       6.76591
         4971       6.76574
         4972       6.76557
         4973        6.7654
         4974       6.76523
         4975       6.76507
         4976        6.7649
         4977       6.76473
         4978       6.76456
         4979       6.76439
         4980       6.76422
         4981       6.76405
         4982       6.76388
         4983       6.76371
         4984       6.76354
         4985       6.76337
         4986        6.7632
         4987       6.76303
         4988       6.76286
         4989       6.76269
         4990       6.76252
         4991       6.76235
         4992       6.76218
         4993       6.76201
         4994       6.76184
         4995       6.76167
         4996       6.76149
         4997       6.76132
         4998       6.76115
         4999       6.76098
         5000       6.76081
         5001       6.76064
         5002       6.76047
         5003       6.76029
         5004       6.76012
         5005       6.75995
         5006       6.75978
         5007       6.75961
         5008       6.75943
         5009       6.75926
         5010       6.75909
         5011       6.75892
         5012       6.75874
         5013       6.75857
         5014        6.7584
         5015       6.75823
         5016       6.75805
         5017       6.75788
         5018       6.75771
         5019       6.75753
         5020       6.75736
         5021       6.75719
         5022       6.75701
         5023       6.75684
         5024       6.75667
         5025       6.75649
         5026       6.75632
         5027       6.75614
         5028       6.75597
         5029        6.7558
         5030       6.75562
         5031       6.75545
         5032       6.75527
         5033        6.7551
         5034       6.75492
         5035       6.75475
         5036       6.75457
         5037        6.7544
         5038       6.75422
         5039       6.75405
         5040       6.75387
         5041        6.7537
         5042       6.75352
         5043       6.75335
         5044       6.75317
         5045         6.753
         5046       6.75282
         5047       6.75264
         5048       6.75247
         5049       6.75229
         5050       6.75212
         5051       6.75194
         5052       6.75176
         5053       6.75159
         5054       6.75141
         5055       6.75123
         5056       6.75106
         5057       6.75088
         5058        6.7507
         5059       6.75053
         5060       6.75035
         5061       6.75017
         5062       6.74999
         5063       6.74982
         5064       6.74964
         5065       6.74946
         5066       6.74928
         5067       6.74911
         5068       6.74893
         5069       6.74875
         5070       6.74857
         5071       6.74839
         5072       6.74822
         5073       6.74804
         5074       6.74786
         5075       6.74768
         5076        6.7475
         5077       6.74732
         5078       6.74714
         5079       6.74696
         5080       6.74678
         5081       6.74661
         5082       6.74643
         5083       6.74625
         5084       6.74607
         5085       6.74589
         5086       6.74571
         5087       6.74553
         5088       6.74535
         5089       6.74517
         5090       6.74499
         5091       6.74481
         5092       6.74463
         5093       6.74445
         5094       6.74427
         5095       6.74409
         5096        6.7439
         5097       6.74372
         5098       6.74354
         5099       6.74336
         5100       6.74318
         5101         6.743
         5102       6.74282
         5103       6.74264
         5104       6.74246
         5105       6.74227
         5106       6.74209
         5107       6.74191
         5108       6.74173
         5109       6.74155
         5110       6.74136
         5111       6.74118
         5112         6.741
         5113       6.74082
         5114       6.74064
         5115       6.74045
         5116       6.74027
         5117       6.74009
         5118        6.7399
         5119       6.73972
         5120       6.73954
         5121       6.73935
         5122       6.73917
         5123       6.73899
         5124        6.7388
         5125       6.73862
         5126       6.73844
         5127       6.73825
         5128       6.73807
         5129       6.73789
         5130        6.7377
         5131       6.73752
         5132       6.73733
         5133       6.73715
         5134       6.73696
         5135       6.73678
         5136        6.7366
         5137       6.73641
         5138       6.73623
         5139       6.73604
         5140       6.73586
         5141       6.73567
         5142       6.73549
         5143        6.7353
         5144       6.73511
         5145       6.73493
         5146       6.73474
         5147       6.73456
         5148       6.73437
         5149       6.73419
         5150         6.734
         5151       6.73381
         5152       6.73363
         5153       6.73344
         5154       6.73325
         5155       6.73307
         5156       6.73288
         5157       6.73269
         5158       6.73251
         5159       6.73232
         5160       6.73213
         5161       6.73195
         5162       6.73176
         5163       6.73157
         5164       6.73138
         5165        6.7312
         5166       6.73101
         5167       6.73082
         5168       6.73063
         5169       6.73044
         5170       6.73026
         5171       6.73007
         5172       6.72988
         5173       6.72969
         5174        6.7295
         5175       6.72931
         5176       6.72913
         5177       6.72894
         5178       6.72875
         5179       6.72856
         5180       6.72837
         5181       6.72818
         5182       6.72799
         5183        6.7278
         5184       6.72761
         5185       6.72742
         5186       6.72723
         5187       6.72704
         5188       6.72685
         5189       6.72666
         5190       6.72647
         5191       6.72628
         5192       6.72609
         5193        6.7259
         5194       6.72571
         5195       6.72552
         5196       6.72533
         5197       6.72514
         5198       6.72495
         5199       6.72476
         5200       6.72457
         5201       6.72438
         5202       6.72418
         5203       6.72399
         5204        6.7238
         5205       6.72361
         5206       6.72342
         5207       6.72323
         5208       6.72303
         5209       6.72284
         5210       6.72265
         5211       6.72246
         5212       6.72227
         5213       6.72207
         5214       6.72188
         5215       6.72169
         5216       6.72149
         5217        6.7213
         5218       6.72111
         5219       6.72092
         5220       6.72072
         5221       6.72053
         5222       6.72034
         5223       6.72014
         5224       6.71995
         5225       6.71976
         5226       6.71956
         5227       6.71937
         5228       6.71917
         5229       6.71898
         5230       6.71879
         5231       6.71859
         5232        6.7184
         5233        6.7182
         5234       6.71801
         5235       6.71781
         5236       6.71762
         5237       6.71742
         5238       6.71723
         5239       6.71703
         5240       6.71684
         5241       6.71664
         5242       6.71645
         5243       6.71625
         5244       6.71606
         5245       6.71586
         5246       6.71566