# Probe 0 (0.05 0.05 0.005)
#       Probe             0
#        Time
         4179   7.44965e+06
         4180   7.44788e+06
         4181   7.44611e+06
         4182   7.44434e+06
         4183   7.44257e+06
         4184    7.4408e+06
         4185   7.43902e+06
         4186   7.43725e+06
         4187   7.43547e+06
         4188    7.4337e+06
         4189   7.43192e+06
         4190   7.43014e+06
         4191   7.42836e+06
         4192   7.42659e+06
         4193   7.42481e+06
         4194   7.42303e+06
         4195   7.42124e+06
         4196   7.41946e+06
         4197   7.41768e+06
         4198    7.4159e+06
         4199   7.41411e+06
         4200   7.41233e+06
         4201   7.41054e+06
         4202   7.40875e+06
         4203   7.40697e+06
         4204   7.40518e+06
         4205   7.40339e+06
         4206    7.4016e+06
         4207   7.39981e+06
         4208   7.39802e+06
         4209   7.39622e+06
         4210   7.39443e+06
         4211   7.39264e+06
         4212   7.39084e+06
         4213   7.38905e+06
         4214   7.38725e+06
         4215   7.38545e+06
         4216   7.38365e+06
         4217   7.38186e+06
         4218   7.38006e+06
         4219   7.37826e+06
         4220   7.37645e+06
         4221   7.37465e+06
         4222   7.37285e+06
         4223   7.37105e+06
         4224   7.36924e+06
         4225   7.36744e+06
         4226   7.36563e+06
         4227   7.36383e+06
         4228   7.36202e+06
         4229   7.36021e+06
         4230    7.3584e+06
         4231   7.35659e+06
         4232   7.35478e+06
         4233   7.35297e+06
         4234   7.35116e+06
         4235   7.34934e+06
         4236   7.34753e+06
         4237   7.34572e+06
         4238    7.3439e+06
         4239   7.34209e+06
         4240   7.34027e+06
         4241   7.33845e+06
         4242   7.33663e+06
         4243   7.33481e+06
         4244   7.33299e+06
         4245   7.33117e+06
         4246   7.32935e+06
         4247   7.32753e+06
         4248   7.32571e+06
         4249   7.32388e+06
         4250   7.32206e+06
         4251   7.32023e+06
         4252   7.31841e+06
         4253   7.31658e+06
         4254   7.31475e+06
         4255   7.31293e+06
         4256    7.3111e+06
         4257   7.30927e+06
         4258   7.30744e+06
         4259    7.3056e+06
         4260   7.30377e+06
         4261   7.30194e+06
         4262    7.3001e+06
         4263   7.29827e+06
         4264   7.29643e+06
         4265    7.2946e+06
         4266   7.29276e+06
         4267   7.29092e+06
         4268   7.28909e+06
         4269   7.28725e+06
         4270   7.28541e+06
         4271   7.28357e+06
         4272   7.28172e+06
         4273   7.27988e+06
         4274   7.27804e+06
         4275    7.2762e+06
         4276   7.27435e+06
         4277   7.27251e+06
         4278   7.27066e+06
         4279   7.26881e+06
         4280   7.26696e+06
         4281   7.26512e+06
         4282   7.26327e+06
         4283   7.26142e+06
         4284   7.25957e+06
         4285   7.25771e+06
         4286   7.25586e+06
         4287   7.25401e+06
         4288   7.25216e+06
         4289    7.2503e+06
         4290   7.24845e+06
         4291   7.24659e+06
         4292   7.24473e+06
         4293   7.24288e+06
         4294   7.24102e+06
         4295   7.23916e+06
         4296    7.2373e+06
         4297   7.23544e+06
         4298   7.23358e+06
         4299   7.23171e+06
         4300   7.22985e+06
         4301   7.22799e+06
         4302   7.22612e+06
         4303   7.22426e+06
         4304   7.22239e+06
         4305   7.22052e+06
         4306   7.21866e+06
         4307   7.21679e+06
         4308   7.21492e+06
         4309   7.21305e+06
         4310   7.21118e+06
         4311   7.20931e+06
         4312   7.20744e+06
         4313   7.20556e+06
         4314   7.20369e+06
         4315   7.20182e+06
         4316   7.19994e+06
         4317   7.19807e+06
         4318   7.19619e+06
         4319   7.19431e+06
         4320   7.19243e+06
         4321   7.19055e+06
         4322   7.18867e+06
         4323   7.18679e+06
         4324   7.18491e+06
         4325   7.18303e+06
         4326   7.18115e+06
         4327   7.17927e+06
         4328   7.17738e+06
         4329    7.1755e+06
         4330   7.17361e+06
         4331   7.17172e+06
         4332   7.16984e+06
         4333   7.16795e+06
         4334   7.16606e+06
         4335   7.16417e+06
         4336   7.16228e+06
         4337   7.16039e+06
         4338    7.1585e+06
         4339   7.15661e+06
         4340   7.15471e+06
         4341   7.15282e+06
         4342   7.15093e+06
         4343   7.14903e+06
         4344   7.14713e+06
         4345   7.14524e+06
         4346   7.14334e+06
         4347   7.14144e+06
         4348   7.13954e+06
         4349   7.13764e+06
         4350   7.13574e+06
         4351   7.13384e+06
         4352   7.13194e+06
         4353   7.13004e+06
         4354   7.12813e+06
         4355   7.12623e+06
         4356   7.12432e+06
         4357   7.12242e+06
         4358   7.12051e+06
         4359    7.1186e+06
         4360    7.1167e+06
         4361   7.11479e+06
         4362   7.11288e+06
         4363   7.11097e+06
         4364   7.10906e+06
         4365   7.10715e+06
         4366   7.10523e+06
         4367   7.10332e+06
         4368   7.10141e+06
         4369   7.09949e+06
         4370   7.09758e+06
         4371   7.09566e+06
         4372   7.09374e+06
         4373   7.09183e+06
         4374   7.08991e+06
         4375   7.08799e+06
         4376   7.08607e+06
         4377   7.08415e+06
         4378   7.08223e+06
         4379   7.08031e+06
         4380   7.07838e+06
         4381   7.07646e+06
         4382   7.07454e+06
         4383   7.07261e+06
         4384   7.07069e+06
         4385   7.06876e+06
         4386   7.06683e+06
         4387    7.0649e+06
         4388   7.06298e+06
         4389   7.06105e+06
         4390   7.05912e+06
         4391   7.05719e+06
         4392   7.05525e+06
         4393   7.05332e+06
         4394   7.05139e+06
         4395   7.04946e+06
         4396   7.04752e+06
         4397   7.04559e+06
         4398   7.04365e+06
         4399   7.04171e+06
         4400   7.03978e+06
         4401   7.03784e+06
         4402    7.0359e+06
         4403   7.03396e+06
         4404   7.03202e+06
         4405   7.03008e+06
         4406   7.02814e+06
         4407    7.0262e+06
         4408   7.02425e+06
         4409   7.02231e+06
         4410   7.02037e+06
         4411   7.01842e+06
         4412   7.01647e+06
         4413   7.01453e+06
         4414   7.01258e+06
         4415   7.01063e+06
         4416   7.00868e+06
         4417   7.00673e+06
         4418   7.00478e+06
         4419   7.00283e+06
         4420   7.00088e+06
         4421   6.99893e+06
         4422   6.99698e+06
         4423   6.99502e+06
         4424   6.99307e+06
         4425   6.99111e+06
         4426   6.98916e+06
         4427    6.9872e+06
         4428   6.98524e+06
         4429   6.98329e+06
         4430   6.98133e+06
         4431   6.97937e+06
         4432   6.97741e+06
         4433   6.97545e+06
         4434   6.97349e+06
         4435   6.97152e+06
         4436   6.96956e+06
         4437    6.9676e+06
         4438   6.96563e+06
         4439   6.96367e+06
         4440    6.9617e+06
         4441   6.95974e+06
         4442   6.95777e+06
         4443    6.9558e+06
         4444   6.95383e+06
         4445   6.95186e+06
         4446   6.94989e+06
         4447   6.94792e+06
         4448   6.94595e+06
         4449   6.94398e+06
         4450     6.942e+06
         4451   6.94003e+06
         4452   6.93806e+06
         4453   6.93608e+06
         4454   6.93411e+06
         4455   6.93213e+06
         4456   6.93015e+06
         4457   6.92818e+06
         4458    6.9262e+06
         4459   6.92422e+06
         4460   6.92224e+06
         4461   6.92026e+06
         4462   6.91828e+06
         4463   6.91629e+06
         4464   6.91431e+06
         4465   6.91233e+06
         4466   6.91034e+06
         4467   6.90836e+06
         4468   6.90637e+06
         4469   6.90439e+06
         4470    6.9024e+06
         4471   6.90041e+06
         4472   6.89843e+06
         4473   6.89644e+06
         4474   6.89445e+06
         4475   6.89246e+06
         4476   6.89047e+06
         4477   6.88847e+06
         4478   6.88648e+06
         4479   6.88449e+06
         4480    6.8825e+06
         4481    6.8805e+06
         4482   6.87851e+06
         4483   6.87651e+06
         4484   6.87451e+06
         4485   6.87252e+06
         4486   6.87052e+06
         4487   6.86852e+06
         4488   6.86652e+06
         4489   6.86452e+06
         4490   6.86252e+06
         4491   6.86052e+06
         4492   6.85852e+06
         4493   6.85652e+06
         4494   6.85451e+06
         4495   6.85251e+06
         4496    6.8505e+06
         4497    6.8485e+06
         4498   6.84649e+06
         4499   6.84449e+06
         4500   6.84248e+06
         4501   6.84047e+06
         4502   6.83846e+06
         4503   6.83645e+06
         4504   6.83444e+06
         4505   6.83243e+06
         4506   6.83042e+06
         4507   6.82841e+06
         4508   6.82639e+06
         4509   6.82438e+06
         4510   6.82237e+06
         4511   6.82035e+06
         4512   6.81834e+06
         4513   6.81632e+06
         4514    6.8143e+06
         4515   6.81229e+06
         4516   6.81027e+06
         4517   6.80825e+06
         4518   6.80623e+06
         4519   6.80421e+06
         4520   6.80219e+06
         4521   6.80017e+06
         4522   6.79815e+06
         4523   6.79612e+06
         4524    6.7941e+06
         4525   6.79207e+06
         4526   6.79005e+06
         4527   6.78802e+06
         4528     6.786e+06
         4529   6.78397e+06
         4530   6.78194e+06
         4531   6.77992e+06
         4532   6.77789e+06
         4533   6.77586e+06
         4534   6.77383e+06
         4535    6.7718e+06
         4536   6.76976e+06
         4537   6.76773e+06
         4538    6.7657e+06
         4539   6.76367e+06
         4540   6.76163e+06
         4541    6.7596e+06
         4542   6.75756e+06
         4543   6.75553e+06
         4544   6.75349e+06
         4545   6.75145e+06
         4546   6.74941e+06
         4547   6.74737e+06
         4548   6.74533e+06
         4549   6.74329e+06
         4550   6.74125e+06
         4551   6.73921e+06
         4552   6.73717e+06
         4553   6.73513e+06
         4554   6.73308e+06
         4555   6.73104e+06
         4556     6.729e+06
         4557   6.72695e+06
         4558    6.7249e+06
         4559   6.72286e+06
         4560   6.72081e+06
         4561   6.71876e+06
         4562   6.71671e+06
         4563   6.71467e+06
         4564   6.71262e+06
         4565   6.71056e+06
         4566   6.70851e+06
         4567   6.70646e+06
         4568   6.70441e+06
         4569   6.70236e+06
         4570    6.7003e+06
         4571   6.69825e+06
         4572   6.69619e+06
         4573   6.69414e+06
         4574   6.69208e+06
         4575   6.69002e+06
         4576   6.68797e+06
         4577   6.68591e+06
         4578   6.68385e+06
         4579   6.68179e+06
         4580   6.67973e+06
         4581   6.67767e+06
         4582   6.67561e+06
         4583   6.67355e+06
         4584   6.67148e+06
         4585   6.66942e+06
         4586   6.66736e+06
         4587   6.66529e+06
         4588   6.66323e+06
         4589   6.66116e+06
         4590   6.65909e+06
         4591   6.65703e+06
         4592   6.65496e+06
         4593   6.65289e+06
         4594   6.65082e+06
         4595   6.64875e+06
         4596   6.64668e+06
         4597   6.64461e+06
         4598   6.64254e+06
         4599   6.64047e+06
         4600   6.63839e+06
         4601   6.63632e+06
         4602   6.63425e+06
         4603   6.63217e+06
         4604    6.6301e+06
         4605   6.62802e+06
         4606   6.62594e+06
         4607   6.62387e+06
         4608   6.62179e+06
         4609   6.61971e+06
         4610   6.61763e+06
         4611   6.61555e+06
         4612   6.61347e+06
         4613   6.61139e+06
         4614   6.60931e+06
         4615   6.60723e+06
         4616   6.60514e+06
         4617   6.60306e+06
         4618   6.60098e+06
         4619   6.59889e+06
         4620    6.5968e+06
         4621   6.59472e+06
         4622   6.59263e+06
         4623   6.59055e+06
         4624   6.58846e+06
         4625   6.58637e+06
         4626   6.58428e+06
         4627   6.58219e+06
         4628    6.5801e+06
         4629   6.57801e+06
         4630   6.57592e+06
         4631   6.57383e+06
         4632   6.57173e+06
         4633   6.56964e+06
         4634   6.56755e+06
         4635   6.56545e+06
         4636   6.56336e+06
         4637   6.56126e+06
         4638   6.55916e+06
         4639   6.55707e+06
         4640   6.55497e+06
         4641   6.55287e+06
         4642   6.55077e+06
         4643   6.54867e+06
         4644   6.54657e+06
         4645   6.54447e+06
         4646   6.54237e+06
         4647   6.54027e+06
         4648   6.53817e+06
         4649   6.53606e+06
         4650   6.53396e+06
         4651   6.53186e+06
         4652   6.52975e+06
         4653   6.52765e+06
         4654   6.52554e+06
         4655   6.52343e+06
         4656   6.52133e+06
         4657   6.51922e+06
         4658   6.51711e+06
         4659     6.515e+06
         4660   6.51289e+06
         4661   6.51078e+06
         4662   6.50867e+06
         4663   6.50656e+06
         4664   6.50445e+06
         4665   6.50233e+06
         4666   6.50022e+06
         4667   6.49811e+06
         4668   6.49599e+06
         4669   6.49388e+06
         4670   6.49176e+06
         4671   6.48965e+06
         4672   6.48753e+06
         4673   6.48541e+06
         4674   6.48329e+06
         4675   6.48118e+06
         4676   6.47906e+06
         4677   6.47694e+06
         4678   6.47482e+06
         4679    6.4727e+06
         4680   6.47057e+06
         4681   6.46845e+06
         4682   6.46633e+06
         4683   6.46421e+06
         4684   6.46208e+06
         4685   6.45996e+06
         4686   6.45783e+06
         4687   6.45571e+06
         4688   6.45358e+06
         4689   6.45146e+06
         4690   6.44933e+06
         4691    6.4472e+06
         4692   6.44507e+06
         4693   6.44294e+06
         4694   6.44081e+06
         4695   6.43868e+06
         4696   6.43655e+06
         4697   6.43442e+06
         4698   6.43229e+06
         4699   6.43016e+06
         4700   6.42802e+06
         4701   6.42589e+06
         4702   6.42376e+06
         4703   6.42162e+06
         4704   6.41949e+06
         4705   6.41735e+06
         4706   6.41521e+06
         4707   6.41308e+06
         4708   6.41094e+06
         4709    6.4088e+06
         4710   6.40666e+06
         4711   6.40452e+06
         4712   6.40238e+06
         4713   6.40024e+06
         4714    6.3981e+06
         4715   6.39596e+06
         4716   6.39382e+06
         4717   6.39168e+06
         4718   6.38953e+06
         4719   6.38739e+06
         4720   6.38524e+06
         4721    6.3831e+06
         4722   6.38095e+06
         4723   6.37881e+06
         4724   6.37666e+06
         4725   6.37451e+06
         4726   6.37237e+06
         4727   6.37022e+06
         4728   6.36807e+06
         4729   6.36592e+06
         4730   6.36377e+06
         4731   6.36162e+06
         4732   6.35947e+06
         4733   6.35732e+06
         4734   6.35517e+06
         4735   6.35301e+06
         4736   6.35086e+06
         4737   6.34871e+06
         4738   6.34655e+06
         4739    6.3444e+06
         4740   6.34224e+06
         4741   6.34009e+06
         4742   6.33793e+06
         4743   6.33577e+06
         4744   6.33361e+06
         4745   6.33146e+06
         4746    6.3293e+06
         4747   6.32714e+06
         4748   6.32498e+06
         4749   6.32282e+06
         4750   6.32066e+06
         4751    6.3185e+06
         4752   6.31633e+06
         4753   6.31417e+06
         4754   6.31201e+06
         4755   6.30984e+06
         4756   6.30768e+06
         4757   6.30552e+06
         4758   6.30335e+06
         4759   6.30118e+06
         4760   6.29902e+06
         4761   6.29685e+06
         4762   6.29468e+06
         4763   6.29252e+06
         4764   6.29035e+06
         4765   6.28818e+06
         4766   6.28601e+06
         4767   6.28384e+06
         4768   6.28167e+06
         4769    6.2795e+06
         4770   6.27733e+06
         4771   6.27515e+06
         4772   6.27298e+06
         4773   6.27081e+06
         4774   6.26863e+06
         4775   6.26646e+06
         4776   6.26429e+06
         4777   6.26211e+06
         4778   6.25993e+06
         4779   6.25776e+06
         4780   6.25558e+06
         4781    6.2534e+06
         4782   6.25123e+06
         4783   6.24905e+06
         4784   6.24687e+06
         4785   6.24469e+06
         4786   6.24251e+06
         4787   6.24033e+06
         4788   6.23815e+06
         4789   6.23597e+06
         4790   6.23378e+06
         4791    6.2316e+06
         4792   6.22942e+06
         4793   6.22723e+06
         4794   6.22505e+06
         4795   6.22287e+06
         4796   6.22068e+06
         4797   6.21849e+06
         4798   6.21631e+06
         4799   6.21412e+06
         4800   6.21193e+06
         4801   6.20975e+06
         4802   6.20756e+06
         4803   6.20537e+06
         4804   6.20318e+06
         4805   6.20099e+06
         4806    6.1988e+06
         4807   6.19661e+06
         4808   6.19442e+06
         4809   6.19223e+06
         4810   6.19003e+06
         4811   6.18784e+06
         4812   6.18565e+06
         4813   6.18345e+06
         4814   6.18126e+06
         4815   6.17906e+06
         4816   6.17687e+06
         4817   6.17467e+06
         4818   6.17248e+06
         4819   6.17028e+06
         4820   6.16808e+06
         4821   6.16589e+06
         4822   6.16369e+06
         4823   6.16149e+06
         4824   6.15929e+06
         4825   6.15709e+06
         4826   6.15489e+06
         4827   6.15269e+06
         4828   6.15049e+06
         4829   6.14829e+06
         4830   6.14608e+06
         4831   6.14388e+06
         4832   6.14168e+06
         4833   6.13947e+06
         4834   6.13727e+06
         4835   6.13506e+06
         4836   6.13286e+06
         4837   6.13065e+06
         4838   6.12845e+06
         4839   6.12624e+06
         4840   6.12403e+06
         4841   6.12183e+06
         4842   6.11962e+06
         4843   6.11741e+06
         4844    6.1152e+06
         4845   6.11299e+06
         4846   6.11078e+06
         4847   6.10857e+06
         4848   6.10636e+06
         4849   6.10415e+06
         4850   6.10194e+06
         4851   6.09972e+06
         4852   6.09751e+06
         4853    6.0953e+06
         4854   6.09308e+06
         4855   6.09087e+06
         4856   6.08865e+06
         4857   6.08644e+06
         4858   6.08422e+06
         4859   6.08201e+06
         4860   6.07979e+06
         4861   6.07757e+06
         4862   6.07536e+06
         4863   6.07314e+06
         4864   6.07092e+06
         4865    6.0687e+06
         4866   6.06648e+06
         4867   6.06426e+06
         4868   6.06204e+06
         4869   6.05982e+06
         4870    6.0576e+06
         4871   6.05538e+06
         4872   6.05315e+06
         4873   6.05093e+06
         4874   6.04871e+06
         4875   6.04648e+06
         4876   6.04426e+06
         4877   6.04204e+06
         4878   6.03981e+06
         4879   6.03758e+06
         4880   6.03536e+06
         4881   6.03313e+06
         4882   6.03091e+06
         4883   6.02868e+06
         4884   6.02645e+06
         4885   6.02422e+06
         4886   6.02199e+06
         4887   6.01976e+06
         4888   6.01753e+06
         4889    6.0153e+06
         4890   6.01307e+06
         4891   6.01084e+06
         4892   6.00861e+06
         4893   6.00638e+06
         4894   6.00415e+06
         4895   6.00191e+06
         4896   5.99968e+06
         4897   5.99745e+06
         4898   5.99521e+06
         4899   5.99298e+06
         4900   5.99074e+06
         4901   5.98851e+06
         4902   5.98627e+06
         4903   5.98404e+06
         4904    5.9818e+06
         4905   5.97956e+06
         4906   5.97733e+06
         4907   5.97509e+06
         4908   5.97285e+06
         4909   5.97061e+06
         4910   5.96837e+06
         4911   5.96613e+06
         4912   5.96389e+06
         4913   5.96165e+06
         4914   5.95941e+06
         4915   5.95717e+06
         4916   5.95492e+06
         4917   5.95268e+06
         4918   5.95044e+06
         4919    5.9482e+06
         4920   5.94595e+06
         4921   5.94371e+06
         4922   5.94146e+06
         4923   5.93922e+06
         4924   5.93697e+06
         4925   5.93473e+06
         4926   5.93248e+06
         4927   5.93023e+06
         4928   5.92799e+06
         4929   5.92574e+06
         4930   5.92349e+06
         4931   5.92124e+06
         4932     5.919e+06
         4933   5.91675e+06
         4934    5.9145e+06
         4935   5.91225e+06
         4936      5.91e+06
         4937   5.90774e+06
         4938   5.90549e+06
         4939   5.90324e+06
         4940   5.90099e+06
         4941   5.89874e+06
         4942   5.89648e+06
         4943   5.89423e+06
         4944   5.89198e+06
         4945   5.88972e+06
         4946   5.88747e+06
         4947   5.88521e+06
         4948   5.88296e+06
         4949    5.8807e+06
         4950   5.87845e+06
         4951   5.87619e+06
         4952   5.87393e+06
         4953   5.87167e+06
         4954   5.86942e+06
         4955   5.86716e+06
         4956    5.8649e+06
         4957   5.86264e+06
         4958   5.86038e+06
         4959   5.85812e+06
         4960   5.85586e+06
         4961    5.8536e+06
         4962   5.85134e+06
         4963   5.84908e+06
         4964   5.84682e+06
         4965   5.84455e+06
         4966   5.84229e+06
         4967   5.84003e+06
         4968   5.83776e+06
         4969    5.8355e+06
         4970   5.83324e+06
         4971   5.83097e+06
         4972   5.82871e+06
         4973   5.82644e+06
         4974   5.82417e+06
         4975   5.82191e+06
         4976   5.81964e+06
         4977   5.81737e+06
         4978   5.81511e+06
         4979   5.81284e+06
         4980   5.81057e+06
         4981    5.8083e+06
         4982   5.80603e+06
         4983   5.80376e+06
         4984    5.8015e+06
         4985   5.79923e+06
         4986   5.79695e+06
         4987   5.79468e+06
         4988   5.79241e+06
         4989   5.79014e+06
         4990   5.78787e+06
         4991    5.7856e+06
         4992   5.78332e+06
         4993   5.78105e+06
         4994   5.77878e+06
         4995    5.7765e+06
         4996   5.77423e+06
         4997   5.77195e+06
         4998   5.76968e+06
         4999    5.7674e+06
         5000   5.76513e+06
         5001   5.76285e+06
         5002   5.76058e+06
         5003    5.7583e+06
         5004   5.75602e+06
         5005   5.75374e+06
         5006   5.75147e+06
         5007   5.74919e+06
         5008   5.74691e+06
         5009   5.74463e+06
         5010   5.74235e+06
         5011   5.74007e+06
         5012   5.73779e+06
         5013   5.73551e+06
         5014   5.73323e+06
         5015   5.73095e+06
         5016   5.72867e+06
         5017   5.72638e+06
         5018    5.7241e+06
         5019   5.72182e+06
         5020   5.71954e+06
         5021   5.71725e+06
         5022   5.71497e+06
         5023   5.71269e+06
         5024    5.7104e+06
         5025   5.70812e+06
         5026   5.70583e+06
         5027   5.70355e+06
         5028   5.70126e+06
         5029   5.69897e+06
         5030   5.69669e+06
         5031    5.6944e+06
         5032   5.69211e+06
         5033   5.68983e+06
         5034   5.68754e+06
         5035   5.68525e+06
         5036   5.68296e+06
         5037   5.68067e+06
         5038   5.67838e+06
         5039   5.67609e+06
         5040    5.6738e+06
         5041   5.67151e+06
         5042   5.66922e+06
         5043   5.66693e+06
         5044   5.66464e+06
         5045   5.66235e+06
         5046   5.66006e+06
         5047   5.65776e+06
         5048   5.65547e+06
         5049   5.65318e+06
         5050   5.65088e+06
         5051   5.64859e+06
         5052    5.6463e+06
         5053     5.644e+06
         5054   5.64171e+06
         5055   5.63941e+06
         5056   5.63712e+06
         5057   5.63482e+06
         5058   5.63253e+06
         5059   5.63023e+06
         5060   5.62793e+06
         5061   5.62564e+06
         5062   5.62334e+06
         5063   5.62104e+06
         5064   5.61874e+06
         5065   5.61645e+06
         5066   5.61415e+06
         5067   5.61185e+06
         5068   5.60955e+06
         5069   5.60725e+06
         5070   5.60495e+06
         5071   5.60265e+06
         5072   5.60035e+06
         5073   5.59805e+06
         5074   5.59575e+06
         5075   5.59345e+06
         5076   5.59114e+06
         5077   5.58884e+06
         5078   5.58654e+06
         5079   5.58424e+06
         5080   5.58193e+06
         5081   5.57963e+06
         5082   5.57733e+06
         5083   5.57502e+06
         5084   5.57272e+06
         5085   5.57041e+06
         5086   5.56811e+06
         5087    5.5658e+06
         5088    5.5635e+06
         5089   5.56119e+06
         5090   5.55889e+06
         5091   5.55658e+06
         5092   5.55427e+06
         5093   5.55197e+06
         5094   5.54966e+06
         5095   5.54735e+06
         5096   5.54504e+06
         5097   5.54274e+06
         5098   5.54043e+06
         5099   5.53812e+06
         5100   5.53581e+06
         5101    5.5335e+06
         5102   5.53119e+06
         5103   5.52888e+06
         5104   5.52657e+06
         5105   5.52426e+06
         5106   5.52195e+06
         5107   5.51964e+06
         5108   5.51733e+06
         5109   5.51501e+06
         5110    5.5127e+06
         5111   5.51039e+06
         5112   5.50808e+06
         5113   5.50577e+06
         5114   5.50345e+06
         5115   5.50114e+06
         5116   5.49883e+06
         5117   5.49651e+06
         5118    5.4942e+06
         5119   5.49188e+06
         5120   5.48957e+06
         5121   5.48725e+06
         5122   5.48494e+06
         5123   5.48262e+06
         5124   5.48031e+06
         5125   5.47799e+06
         5126   5.47567e+06
         5127   5.47336e+06
         5128   5.47104e+06
         5129   5.46872e+06
         5130    5.4664e+06
         5131   5.46409e+06
         5132   5.46177e+06
         5133   5.45945e+06
         5134   5.45713e+06
         5135   5.45481e+06
         5136   5.45249e+06
         5137   5.45017e+06
         5138   5.44785e+06
         5139   5.44553e+06
         5140   5.44321e+06
         5141   5.44089e+06
         5142   5.43857e+06
         5143   5.43625e+06
         5144   5.43393e+06
         5145   5.43161e+06
         5146   5.42929e+06
         5147   5.42697e+06
         5148   5.42464e+06
         5149   5.42232e+06
         5150      5.42e+06
         5151   5.41768e+06
         5152   5.41535e+06
         5153   5.41303e+06
         5154    5.4107e+06
         5155   5.40838e+06
         5156   5.40606e+06
         5157   5.40373e+06
         5158   5.40141e+06
         5159   5.39908e+06
         5160   5.39676e+06
         5161   5.39443e+06
         5162   5.39211e+06
         5163   5.38978e+06
         5164   5.38745e+06
         5165   5.38513e+06
         5166    5.3828e+06
         5167   5.38047e+06
         5168   5.37815e+06
         5169   5.37582e+06
         5170   5.37349e+06
         5171   5.37116e+06
         5172   5.36883e+06
         5173   5.36651e+06
         5174   5.36418e+06
         5175   5.36185e+06
         5176   5.35952e+06
         5177   5.35719e+06
         5178   5.35486e+06
         5179   5.35253e+06
         5180    5.3502e+06
         5181   5.34787e+06
         5182   5.34554e+06
         5183   5.34321e+06
         5184   5.34088e+06
         5185   5.33855e+06
         5186   5.33622e+06
         5187   5.33388e+06
         5188   5.33155e+06
         5189   5.32922e+06
         5190   5.32689e+06
         5191   5.32455e+06
         5192   5.32222e+06
         5193   5.31989e+06
         5194   5.31756e+06
         5195   5.31522e+06
         5196   5.31289e+06
         5197   5.31055e+06
         5198   5.30822e+06
         5199   5.30589e+06
         5200   5.30355e+06
         5201   5.30122e+06
         5202   5.29888e+06
         5203   5.29655e+06
         5204   5.29421e+06
         5205   5.29188e+06
         5206   5.28954e+06
         5207    5.2872e+06
         5208   5.28487e+06
         5209   5.28253e+06
         5210   5.28019e+06
         5211   5.27786e+06
         5212   5.27552e+06
         5213   5.27318e+06
         5214   5.27085e+06
         5215   5.26851e+06
         5216   5.26617e+06
         5217   5.26383e+06
         5218   5.26149e+06
         5219   5.25916e+06
         5220   5.25682e+06
         5221   5.25448e+06
         5222   5.25214e+06
         5223    5.2498e+06
         5224   5.24746e+06
         5225   5.24512e+06
         5226   5.24278e+06
         5227   5.24044e+06
         5228    5.2381e+06
         5229   5.23576e+06
         5230   5.23342e+06
         5231   5.23108e+06
         5232   5.22874e+06
         5233    5.2264e+06
         5234   5.22406e+06
         5235   5.22171e+06
         5236   5.21937e+06
         5237   5.21703e+06
         5238   5.21469e+06
         5239   5.21235e+06
         5240      5.21e+06
         5241   5.20766e+06
         5242   5.20532e+06
         5243   5.20298e+06
         5244   5.20063e+06
         5245   5.19829e+06
         5246   5.19595e+06