# Probe 0 (0.05 0.05 0.005)
#       Probe             0
#        Time
       151000   0.000611493
       152000   0.000605831
       153000   0.000600397
       154000   0.000595179
       155000    0.00059017
       156000   0.000585358
       157000   0.000580737
       158000   0.000576296
       159000   0.000572029
       160000   0.000567928
       161000   0.000563984
       162000   0.000560192
       163000   0.000556545
       164000   0.000553036
       165000    0.00054966
       166000    0.00054641
       167000   0.000543282
       168000   0.000540269
       169000   0.000537368
       170000   0.000534572
       171000   0.000531879
       172000   0.000529283
       173000    0.00052678
       174000   0.000524367
       175000   0.000522039
       176000   0.000519794
       177000   0.000517627
       178000   0.000515535
       179000   0.000513516
       180000   0.000511567
       181000   0.000509684
       182000   0.000507865
       183000   0.000506107
       184000   0.000504408
       185000   0.000502766
       186000   0.000501178
       187000   0.000499642
       188000   0.000498157
       189000   0.000496719
       190000   0.000495328
       191000   0.000493981
       192000   0.000492677
       193000   0.000491415
       194000   0.000490192
       195000   0.000489007
       196000   0.000487858
       197000   0.000486746
       198000   0.000485667
       199000   0.000484621
       200000   0.000483606
