# Probe 0 (0.05 0.05 0.005)
#       Probe             0
#        Time
       151000   0.000299261
       152000   0.000295501
       153000   0.000291911
       154000    0.00028848
       155000     0.0002852
       156000   0.000282063
       157000   0.000279063
       158000   0.000276192
       159000   0.000273444
       160000   0.000270812
       161000   0.000268291
       162000   0.000265875
       163000    0.00026356
       164000   0.000261339
       165000   0.000259209
       166000   0.000257165
       167000   0.000255203
       168000   0.000253319
       169000   0.000251509
       170000    0.00024977
       171000   0.000248099
       172000   0.000246492
       173000   0.000244947
       174000    0.00024346
       175000   0.000242029
       176000   0.000240652
       177000   0.000239326
       178000   0.000238048
       179000   0.000236817
       180000   0.000235631
       181000   0.000234487
       182000   0.000233384
       183000    0.00023232
       184000   0.000231293
       185000   0.000230303
       186000   0.000229346
       187000   0.000228422
       188000    0.00022753
       189000   0.000226667
       190000   0.000225834
       191000   0.000225028
       192000   0.000224249
       193000   0.000223496
       194000   0.000222767
       195000   0.000222061
       196000   0.000221379
       197000   0.000220718
       198000   0.000220077
       199000   0.000219457
       200000   0.000218857
