# Probe 0 (0.05 0.05 0.005)
#       Probe             0
#        Time
       151000   1.09562e-06
       152000   1.08552e-06
       153000   1.07583e-06
       154000   1.06652e-06
       155000   1.05759e-06
       156000     1.049e-06
       157000   1.04075e-06
       158000   1.03283e-06
       159000   1.02521e-06
       160000   1.01789e-06
       161000   1.01086e-06
       162000   1.00409e-06
       163000   9.97575e-07
       164000    9.9131e-07
       165000   9.85281e-07
       166000   9.79479e-07
       167000   9.73892e-07
       168000   9.68512e-07
       169000    9.6333e-07
       170000   9.58337e-07
       171000   9.53526e-07
       172000   9.48888e-07
       173000   9.44417e-07
       174000   9.40106e-07
       175000   9.35947e-07
       176000   9.31935e-07
       177000   9.28063e-07
       178000   9.24326e-07
       179000   9.20718e-07
       180000   9.17234e-07
       181000   9.13869e-07
       182000   9.10618e-07
       183000   9.07476e-07
       184000    9.0444e-07
       185000   9.01504e-07
       186000   8.98666e-07
       187000    8.9592e-07
       188000   8.93264e-07
       189000   8.90694e-07
       190000   8.88207e-07
       191000   8.85799e-07
       192000   8.83468e-07
       193000    8.8121e-07
       194000   8.79024e-07
       195000   8.76905e-07
       196000   8.74852e-07
       197000   8.72861e-07
       198000   8.70932e-07
       199000   8.69061e-07
       200000   8.67247e-07
