# Probe 0 (0.05 0.05 0.005)
#       Probe             0
#        Time
       151000   0.000969213
       152000   0.000957039
       153000   0.000945409
       154000   0.000934297
       155000   0.000923674
       156000   0.000913516
       157000   0.000903799
       158000   0.000894501
       159000     0.0008856
       160000   0.000877077
       161000   0.000868912
       162000   0.000861088
       163000   0.000853588
       164000   0.000846395
       165000   0.000839497
       166000   0.000832876
       167000   0.000826522
       168000    0.00082042
       169000   0.000814559
       170000   0.000808928
       171000   0.000803515
       172000   0.000798311
       173000   0.000793307
       174000   0.000788491
       175000   0.000783858
       176000   0.000779397
       177000   0.000775101
       178000   0.000770964
       179000   0.000766977
       180000   0.000763135
       181000    0.00075943
       182000   0.000755858
       183000   0.000752412
       184000   0.000749087
       185000   0.000745878
       186000   0.000742779
       187000   0.000739787
       188000   0.000736897
       189000   0.000734104
       190000   0.000731405
       191000   0.000728796
       192000   0.000726273
       193000   0.000723832
       194000   0.000721471
       195000   0.000719187
       196000   0.000716976
       197000   0.000714835
       198000   0.000712761
       199000   0.000710753
       200000   0.000708808
