# Probe 0 (0.05 0.05 0.005)
#       Probe             0
#        Time
       151000     0.0390308
       152000     0.0390429
       153000     0.0390546
       154000     0.0390657
       155000     0.0390763
       156000     0.0390865
       157000     0.0390962
       158000     0.0391055
       159000     0.0391144
       160000     0.0391229
       161000     0.0391311
       162000     0.0391389
       163000     0.0391464
       164000     0.0391536
       165000     0.0391605
       166000     0.0391671
       167000     0.0391735
       168000     0.0391796
       169000     0.0391854
       170000     0.0391911
       171000     0.0391965
       172000     0.0392017
       173000     0.0392067
       174000     0.0392115
       175000     0.0392161
       176000     0.0392206
       177000     0.0392249
       178000      0.039229
       179000      0.039233
       180000     0.0392369
       181000     0.0392406
       182000     0.0392441
       183000     0.0392476
       184000     0.0392509
       185000     0.0392541
       186000     0.0392572
       187000     0.0392602
       188000     0.0392631
       189000     0.0392659
       190000     0.0392686
       191000     0.0392712
       192000     0.0392737
       193000     0.0392762
       194000     0.0392785
       195000     0.0392808
       196000      0.039283
       197000     0.0392852
       198000     0.0392872
       199000     0.0392892
       200000     0.0392912
