# Probe 0 (0.05 0.05 0.005)
#       Probe             0
#        Time
       151000   0.000969221
       152000   0.000957047
       153000   0.000945417
       154000   0.000934305
       155000   0.000923682
       156000   0.000913524
       157000   0.000903808
       158000   0.000894509
       159000   0.000885608
       160000   0.000877085
       161000    0.00086892
       162000   0.000861096
       163000   0.000853596
       164000   0.000846404
       165000   0.000839505
       166000   0.000832885
       167000    0.00082653
       168000   0.000820428
       169000   0.000814568
       170000   0.000808936
       171000   0.000803524
       172000    0.00079832
       173000   0.000793315
       174000     0.0007885
       175000   0.000783866
       176000   0.000779405
       177000    0.00077511
       178000   0.000770972
       179000   0.000766985
       180000   0.000763143
       181000   0.000759439
       182000   0.000755866
       183000    0.00075242
       184000   0.000749095
       185000   0.000745886
       186000   0.000742787
       187000   0.000739795
       188000   0.000736905
       189000   0.000734112
       190000   0.000731413
       191000   0.000728804
       192000   0.000726281
       193000   0.000723841
       194000    0.00072148
       195000   0.000719195
       196000   0.000716984
       197000   0.000714843
       198000    0.00071277
       199000   0.000710761
       200000   0.000708816
