# Probe 0 (0.05 0.05 0.005)
#       Probe             0
#        Time
       151000   0.000969205
       152000    0.00095703
       153000   0.000945401
       154000   0.000934288
       155000   0.000923666
       156000   0.000913508
       157000   0.000903791
       158000   0.000894493
       159000   0.000885592
       160000   0.000877068
       161000   0.000868903
       162000   0.000861079
       163000   0.000853579
       164000   0.000846387
       165000   0.000839488
       166000   0.000832868
       167000   0.000826514
       168000   0.000820412
       169000   0.000814551
       170000    0.00080892
       171000   0.000803507
       172000   0.000798303
       173000   0.000793298
       174000   0.000788483
       175000   0.000783849
       176000   0.000779389
       177000   0.000775093
       178000   0.000770955
       179000   0.000766969
       180000   0.000763126
       181000   0.000759422
       182000    0.00075585
       183000   0.000752404
       184000   0.000749078
       185000   0.000745869
       186000   0.000742771
       187000   0.000739779
       188000   0.000736888
       189000   0.000734096
       190000   0.000731397
       191000   0.000728787
       192000   0.000726264
       193000   0.000723824
       194000   0.000721463
       195000   0.000719179
       196000   0.000716967
       197000   0.000714826
       198000   0.000712753
       199000   0.000710745
       200000   0.000708799
