# Probe 0 (0.05 0.05 0.005)
#       Probe             0
#        Time
       151000        289058
       152000        219213
       153000        163671
       154000        120219
       155000       86801.1
       156000       61556.2
       157000       42839.3
       158000       29231.6
       159000         19539
       160000       12781.5
       161000       8174.47
       162000       5106.17
       163000       3111.92
       164000       1848.35
       165000       1068.74
       166000       600.876
       167000       328.092
       168000       173.766
       169000       89.1514
       170000       44.2496
       171000       21.2183
       172000       9.81557
       173000        4.3741
       174000       1.87488
       175000      0.771778
       176000      0.304615
       177000      0.115088
       178000      0.041552
       179000     0.0143111
       180000    0.00469341
       181000    0.00146296
       182000    0.00043259
       183000   0.000121106
       184000   3.20347e-05
       185000   7.98987e-06
       186000   1.87498e-06
       187000    4.1308e-07
       188000   8.52465e-08
       189000   1.64406e-08
       190000   2.95612e-09
       191000   4.94347e-10
       192000   7.66936e-11
       193000     1.101e-11
       194000   1.45871e-12
       195000   1.77882e-13
       196000   1.99099e-14
       197000   2.03961e-15
       198000   1.90679e-16
       199000   1.62194e-17
       200000   1.25146e-18
