# Probe 0 (0.05 0.05 0.005)
#       Probe             0
#        Time
       151000      0.434516
       152000      0.419726
       153000      0.405553
       154000      0.391968
       155000      0.378943
       156000      0.366453
       157000      0.354472
       158000      0.342976
       159000      0.331944
       160000      0.321353
       161000      0.311184
       162000      0.301416
       163000      0.292032
       164000      0.283015
       165000      0.274347
       166000      0.266013
       167000      0.257998
       168000      0.250287
       169000      0.242868
       170000      0.235727
       171000      0.228852
       172000      0.222231
       173000      0.215854
       174000      0.209709
       175000      0.203787
       176000      0.198078
       177000      0.192573
       178000      0.187264
       179000      0.182142
       180000        0.1772
       181000      0.172429
       182000      0.167823
       183000      0.163375
       184000      0.159078
       185000      0.154927
       186000      0.150916
       187000      0.147038
       188000      0.143289
       189000      0.139663
       190000      0.136155
       191000      0.132762
       192000      0.129478
       193000      0.126299
       194000      0.123221
       195000       0.12024
       196000      0.117353
       197000      0.114556
       198000      0.111845
       199000      0.109218
       200000      0.106671
