# Probe 0 (0.05 0.05 0.005)
#       Probe             0
#        Time
       151000   1.95842e-05
       152000   1.89176e-05
       153000   1.82788e-05
       154000   1.76665e-05
       155000   1.70794e-05
       156000   1.65165e-05
       157000   1.59765e-05
       158000   1.54584e-05
       159000   1.49611e-05
       160000   1.44838e-05
       161000   1.40254e-05
       162000   1.35852e-05
       163000   1.31623e-05
       164000   1.27558e-05
       165000   1.23652e-05
       166000   1.19895e-05
       167000   1.16283e-05
       168000   1.12808e-05
       169000   1.09464e-05
       170000   1.06245e-05
       171000   1.03146e-05
       172000   1.00162e-05
       173000    9.7288e-06
       174000   9.45185e-06
       175000   9.18494e-06
       176000   8.92764e-06
       177000   8.67954e-06
       178000   8.44024e-06
       179000   8.20939e-06
       180000   7.98662e-06
       181000   7.77159e-06
       182000     7.564e-06
       183000   7.36352e-06
       184000   7.16987e-06
       185000   6.98278e-06
       186000   6.80197e-06
       187000   6.62719e-06
       188000    6.4582e-06
       189000   6.29478e-06
       190000   6.13669e-06
       191000   5.98374e-06
       192000   5.83572e-06
       193000   5.69244e-06
       194000   5.55372e-06
       195000   5.41937e-06
       196000   5.28925e-06
       197000   5.16317e-06
       198000     5.041e-06
       199000   4.92259e-06
       200000   4.80779e-06
