# Probe 0 (0.05 0.05 0.005)
#       Probe             0
#        Time
       151000       1.43452
       152000       1.41973
       153000       1.40555
       154000       1.39197
       155000       1.37894
       156000       1.36645
       157000       1.35447
       158000       1.34298
       159000       1.33194
       160000       1.32135
       161000       1.31118
       162000       1.30142
       163000       1.29203
       164000       1.28301
       165000       1.27435
       166000       1.26601
       167000         1.258
       168000       1.25029
       169000       1.24287
       170000       1.23573
       171000       1.22885
       172000       1.22223
       173000       1.21585
       174000       1.20971
       175000       1.20379
       176000       1.19808
       177000       1.19257
       178000       1.18726
       179000       1.18214
       180000        1.1772
       181000       1.17243
       182000       1.16782
       183000       1.16337
       184000       1.15908
       185000       1.15493
       186000       1.15092
       187000       1.14704
       188000       1.14329
       189000       1.13966
       190000       1.13616
       191000       1.13276
       192000       1.12948
       193000        1.1263
       194000       1.12322
       195000       1.12024
       196000       1.11735
       197000       1.11456
       198000       1.11185
       199000       1.10922
       200000       1.10667
