# Probe 0 (0.05 0.05 0.005)
#       Probe             0
#        Time
       151000      0.474865
       152000      0.461226
       153000      0.448021
       154000       0.43524
       155000      0.422868
       156000      0.410893
       157000      0.399303
       158000      0.388086
       159000       0.37723
       160000      0.366724
       161000      0.356556
       162000      0.346716
       163000      0.337192
       164000      0.327975
       165000      0.319054
       166000      0.310419
       167000       0.30206
       168000      0.293969
       169000      0.286136
       170000      0.278553
       171000      0.271211
       172000      0.264101
       173000      0.257216
       174000      0.250548
       175000       0.24409
       176000      0.237834
       177000      0.231773
       178000      0.225901
       179000      0.220211
       180000      0.214697
       181000      0.209353
       182000      0.204173
       183000      0.199151
       184000      0.194281
       185000       0.18956
       186000       0.18498
       187000      0.180539
       188000       0.17623
       189000      0.172049
       190000      0.167993
       191000      0.164056
       192000      0.160235
       193000      0.156526
       194000      0.152925
       195000      0.149428
       196000      0.146031
       197000      0.142733
       198000      0.139528
       199000      0.136415
       200000      0.133389
