# Probe 0 (0.05 0.05 0.005)
#       Probe             0
#        Time
       151000       2.98445
       152000       2.89218
       153000       2.80557
       154000        2.7242
       155000       2.64769
       156000       2.57568
       157000       2.50786
       158000       2.44391
       159000       2.38358
       160000       2.32661
       161000       2.27277
       162000       2.22185
       163000       2.17366
       164000       2.12802
       165000       2.08475
       166000       2.04371
       167000       2.00475
       168000       1.96775
       169000       1.93257
       170000       1.89912
       171000       1.86728
       172000       1.83696
       173000       1.80807
       174000       1.78052
       175000       1.75424
       176000       1.72915
       177000       1.70519
       178000       1.68229
       179000       1.66039
       180000       1.63945
       181000        1.6194
       182000       1.60019
       183000        1.5818
       184000       1.56416
       185000       1.54725
       186000       1.53102
       187000       1.51544
       188000       1.50048
       189000        1.4861
       190000       1.47229
       191000         1.459
       192000       1.44622
       193000       1.43392
       194000       1.42208
       195000       1.41068
       196000       1.39969
       197000        1.3891
       198000       1.37889
       199000       1.36904
       200000       1.35953
