# Probe 0 (0.05 0.05 0.005)
#       Probe             0
#        Time
           50   8.94275e-09
          100   1.57791e-07
          150   8.33121e-07
          200   2.70104e-06
          250   6.74062e-06
          300   1.42174e-05
          350   2.65822e-05
          400   4.57311e-05
          450   7.37862e-05
          500    0.00011315
          550   0.000166496
          600   0.000236758
          650   0.000327112
          700   0.000440956
          750   0.000581884
          800   0.000753649
          850   0.000960127
          900    0.00120526
          950    0.00149302
         1000     0.0018273
         1050     0.0022119
         1100     0.0026504
         1150    0.00314607
         1200    0.00370184
         1250    0.00432011
         1300    0.00500272
         1350    0.00575086
         1400    0.00656491
         1450    0.00744445
         1500    0.00838813
         1550    0.00939365
         1600     0.0104577
         1650     0.0115761
         1700     0.0127434
         1750     0.0139536
         1800     0.0151995
         1850     0.0164736
         1900     0.0177673
         1950     0.0190718
         2000     0.0203781
         2050      0.021677
         2100     0.0229593
         2150     0.0242164
         2200     0.0254399
         2250     0.0266224
         2300     0.0277571
         2350     0.0288383
         2400     0.0298613
         2450     0.0308226
         2500     0.0317199
         2550     0.0325519
         2600     0.0333187
         2650     0.0340209
         2700     0.0346605
         2750     0.0352398
         2800      0.035762
         2850     0.0362306
         2900     0.0366494
         2950     0.0370223
         3000     0.0373535
         3050     0.0376467
         3100     0.0379058
         3150     0.0381345
         3200     0.0383359
         3250     0.0385134
         3300     0.0386695
         3350      0.038807
         3400     0.0389281
         3450     0.0390347
         3500     0.0391288
         3550     0.0392118
         3600     0.0392851
         3650     0.0393501
         3700     0.0394076
         3750     0.0394587
         3800     0.0395041
         3850     0.0395446
         3900     0.0395808
         3950     0.0396131
         4000      0.039642
         4050      0.039668
         4100     0.0396913
         4150     0.0397124
         4200     0.0397314
         4250     0.0397486
         4300     0.0397641
         4350     0.0397782
         4400     0.0397911
         4450     0.0398028
         4500     0.0398134
         4550     0.0398232
         4600     0.0398321
         4650     0.0398403
         4700     0.0398478
         4750     0.0398547
         4800      0.039861
         4850     0.0398669
         4900     0.0398723
         4950     0.0398773
         5000     0.0398819
