# Probe 0 (0.05 0.05 0.005)
#       Probe             0
#        Time
           50          0.04
          100     0.0399998
          150     0.0399991
          200     0.0399973
          250     0.0399932
          300     0.0399858
          350     0.0399734
          400     0.0399543
          450     0.0399262
          500     0.0398868
          550     0.0398335
          600     0.0397632
          650     0.0396729
          700      0.039559
          750     0.0394181
          800     0.0392463
          850     0.0390399
          900     0.0387947
          950      0.038507
         1000     0.0381727
         1050     0.0377881
         1100     0.0373496
         1150     0.0368539
         1200     0.0362981
         1250     0.0356799
         1300     0.0349973
         1350     0.0342491
         1400     0.0334351
         1450     0.0325555
         1500     0.0316119
         1550     0.0306063
         1600     0.0295423
         1650     0.0284239
         1700     0.0272566
         1750     0.0260464
         1800     0.0248004
         1850     0.0235264
         1900     0.0222327
         1950     0.0209282
         2000     0.0196219
         2050      0.018323
         2100     0.0170407
         2150     0.0157836
         2200     0.0145601
         2250     0.0133776
         2300     0.0122429
         2350     0.0111617
         2400     0.0101387
         2450    0.00917739
         2500     0.0082801
         2550    0.00744804
         2600    0.00668132
         2650    0.00597907
         2700    0.00533952
         2750    0.00476019
         2800    0.00423799
         2850     0.0037694
         2900    0.00335061
         2950    0.00297765
         3000    0.00264652
         3050    0.00235329
         3100    0.00209416
         3150    0.00186553
         3200    0.00166404
         3250    0.00148662
         3300    0.00133044
         3350    0.00119296
         3400    0.00107191
         3450   0.000965261
         3500   0.000871219
         3550   0.000788209
         3600   0.000714846
         3650   0.000649918
         3700   0.000592368
         3750   0.000541275
         3800   0.000495837
         3850   0.000455356
         3900   0.000419227
         3950    0.00038692
         4000   0.000357978
         4050   0.000332002
         4100   0.000308643
         4150   0.000287599
         4200   0.000268605
         4250   0.000251429
         4300   0.000235869
         4350   0.000221749
         4400   0.000208912
         4450   0.000197221
         4500   0.000186557
         4550   0.000176812
         4600   0.000167894
         4650   0.000159719
         4700   0.000152214
         4750   0.000145314
         4800    0.00013896
         4850   0.000133101
         4900   0.000127691
         4950   0.000122689
         5000   0.000118058
