# Probe 0 (0.05 0.05 0.005)
#       Probe             0
#        Time
           50          0.04
          100     0.0399998
          150     0.0399992
          200     0.0399973
          250     0.0399933
          300     0.0399858
          350     0.0399734
          400     0.0399543
          450     0.0399262
          500     0.0398868
          550     0.0398335
          600     0.0397632
          650     0.0396729
          700      0.039559
          750     0.0394181
          800     0.0392463
          850     0.0390399
          900     0.0387947
          950      0.038507
         1000     0.0381727
         1050     0.0377881
         1100     0.0373496
         1150     0.0368539
         1200     0.0362982
         1250     0.0356799
         1300     0.0349973
         1350     0.0342491
         1400     0.0334351
         1450     0.0325555
         1500     0.0316119
         1550     0.0306063
         1600     0.0295423
         1650     0.0284239
         1700     0.0272566
         1750     0.0260464
         1800     0.0248004
         1850     0.0235264
         1900     0.0222327
         1950     0.0209282
         2000     0.0196219
         2050      0.018323
         2100     0.0170407
         2150     0.0157836
         2200     0.0145601
         2250     0.0133776
         2300     0.0122429
         2350     0.0111617
         2400     0.0101387
         2450     0.0091774
         2500    0.00828011
         2550    0.00744805
         2600    0.00668133
         2650    0.00597907
         2700    0.00533953
         2750     0.0047602
         2800      0.004238
         2850    0.00376941
         2900    0.00335062
         2950    0.00297766
         3000    0.00264653
         3050     0.0023533
         3100    0.00209417
         3150    0.00186553
         3200    0.00166405
         3250    0.00148663
         3300    0.00133045
         3350    0.00119297
         3400    0.00107192
         3450    0.00096527
         3500   0.000871228
         3550   0.000788218
         3600   0.000714855
         3650   0.000649927
         3700   0.000592377
         3750   0.000541284
         3800   0.000495846
         3850   0.000455366
         3900   0.000419236
         3950   0.000386929
         4000   0.000357988
         4050   0.000332011
         4100   0.000308652
         4150   0.000287608
         4200   0.000268614
         4250   0.000251438
         4300   0.000235878
         4350   0.000221758
         4400   0.000208921
         4450    0.00019723
         4500   0.000186566
         4550   0.000176821
         4600   0.000167903
         4650   0.000159728
         4700   0.000152224
         4750   0.000145323
         4800   0.000138969
         4850   0.000133111
         4900   0.000127701
         4950   0.000122698
         5000   0.000118067
