# Probe 0 (0.05 0.05 0.005)
#       Probe             0
#        Time
           50          0.04
          100     0.0399998
          150     0.0399991
          200     0.0399973
          250     0.0399932
          300     0.0399858
          350     0.0399734
          400     0.0399542
          450     0.0399262
          500     0.0398868
          550     0.0398335
          600     0.0397632
          650     0.0396729
          700      0.039559
          750     0.0394181
          800     0.0392463
          850     0.0390398
          900     0.0387947
          950      0.038507
         1000     0.0381727
         1050     0.0377881
         1100     0.0373496
         1150     0.0368539
         1200     0.0362981
         1250     0.0356799
         1300     0.0349972
         1350     0.0342491
         1400     0.0334351
         1450     0.0325555
         1500     0.0316118
         1550     0.0306063
         1600     0.0295423
         1650     0.0284239
         1700     0.0272566
         1750     0.0260464
         1800     0.0248004
         1850     0.0235264
         1900     0.0222327
         1950     0.0209282
         2000     0.0196219
         2050      0.018323
         2100     0.0170407
         2150     0.0157836
         2200       0.01456
         2250     0.0133776
         2300     0.0122429
         2350     0.0111617
         2400     0.0101387
         2450    0.00917738
         2500    0.00828009
         2550    0.00744803
         2600    0.00668131
         2650    0.00597906
         2700    0.00533951
         2750    0.00476018
         2800    0.00423798
         2850    0.00376939
         2900     0.0033506
         2950    0.00297764
         3000    0.00264652
         3050    0.00235328
         3100    0.00209415
         3150    0.00186552
         3200    0.00166403
         3250    0.00148661
         3300    0.00133043
         3350    0.00119295
         3400     0.0010719
         3450   0.000965252
         3500   0.000871211
         3550     0.0007882
         3600   0.000714837
         3650   0.000649909
         3700   0.000592359
         3750   0.000541267
         3800   0.000495829
         3850   0.000455348
         3900   0.000419218
         3950   0.000386912
         4000    0.00035797
         4050   0.000331993
         4100   0.000308635
         4150    0.00028759
         4200   0.000268596
         4250    0.00025142
         4300   0.000235861
         4350    0.00022174
         4400   0.000208903
         4450   0.000197212
         4500   0.000186548
         4550   0.000176804
         4600   0.000167886
         4650   0.000159711
         4700   0.000152206
         4750   0.000145305
         4800   0.000138952
         4850   0.000133093
         4900   0.000127683
         4950   0.000122681
         5000   0.000118049
