# Probe 0 (0.05 0.05 0.005)
#       Probe             0
#        Time
           50    3.7867e+10
          100    3.7867e+10
          150   3.78669e+10
          200   3.78666e+10
          250    3.7866e+10
          300   3.78649e+10
          350   3.78631e+10
          400   3.78603e+10
          450    3.7856e+10
          500     3.785e+10
          550   3.78418e+10
          600   3.78309e+10
          650   3.78168e+10
          700   3.77989e+10
          750   3.77766e+10
          800   3.77493e+10
          850   3.77162e+10
          900   3.76767e+10
          950   3.76298e+10
         1000   3.75749e+10
         1050    3.7511e+10
         1100   3.74374e+10
         1150    3.7353e+10
         1200    3.7257e+10
         1250   3.71485e+10
         1300   3.70264e+10
         1350   3.68898e+10
         1400   3.67377e+10
         1450   3.65692e+10
         1500   3.63833e+10
         1550    3.6179e+10
         1600   3.59553e+10
         1650   3.57114e+10
         1700   3.54462e+10
         1750   3.51589e+10
         1800   3.48485e+10
         1850   3.45143e+10
         1900   3.41553e+10
         1950   3.37709e+10
         2000   3.33602e+10
         2050   3.29226e+10
         2100   3.24576e+10
         2150   3.19646e+10
         2200   3.14435e+10
         2250   3.08939e+10
         2300    3.0316e+10
         2350   2.97101e+10
         2400   2.90766e+10
         2450   2.84165e+10
         2500   2.77308e+10
         2550   2.70212e+10
         2600   2.62895e+10
         2650   2.55378e+10
         2700   2.47687e+10
         2750    2.3985e+10
         2800   2.31898e+10
         2850   2.23861e+10
         2900   2.15774e+10
         2950    2.0767e+10
         3000   1.99581e+10
         3050   1.91541e+10
         3100   1.83578e+10
         3150   1.75722e+10
         3200   1.67998e+10
         3250   1.60429e+10
         3300   1.53035e+10
         3350   1.45832e+10
         3400   1.38836e+10
         3450   1.32056e+10
         3500   1.25503e+10
         3550   1.19181e+10
         3600   1.13095e+10
         3650   1.07247e+10
         3700   1.01637e+10
         3750   9.62638e+09
         3800   9.11249e+09
         3850   8.62166e+09
         3900   8.15344e+09
         3950    7.7073e+09
         4000   7.28264e+09
         4050   6.87885e+09
         4100   6.49524e+09
         4150   6.13112e+09
         4200   5.78578e+09
         4250    5.4585e+09
         4300   5.14855e+09
         4350   4.85521e+09
         4400   4.57776e+09
         4450   4.31549e+09
         4500    4.0677e+09
         4550   3.83372e+09
         4600   3.61288e+09
         4650   3.40453e+09
         4700   3.20805e+09
         4750   3.02283e+09
         4800   2.84829e+09
         4850   2.68387e+09
         4900   2.52902e+09
         4950   2.38323e+09
         5000   2.24599e+09
