# Probe 0 (0.05 0.05 0.005)
#       Probe             0
#        Time
           50       226.628
          100       226.627
          150       226.626
          200       226.621
          250       226.609
          300       226.588
          350       226.553
          400       226.497
          450       226.415
          500       226.298
          550       226.139
          600       225.927
          650       225.654
          700       225.309
          750       224.879
          800       224.352
          850       223.716
          900       222.957
          950       222.062
         1000       221.016
         1050       219.806
         1100       218.417
         1150       216.835
         1200       215.048
         1250       213.041
         1300       210.805
         1350       208.326
         1400       205.597
         1450        202.61
         1500       199.357
         1550       195.835
         1600       192.041
         1650       187.976
         1700       183.641
         1750       179.043
         1800       174.188
         1850       169.087
         1900       163.753
         1950       158.201
         2000        152.45
         2050       146.521
         2100       140.438
         2150       134.228
         2200       127.918
         2250       121.541
         2300       115.129
         2350       108.717
         2400        102.34
         2450       96.0331
         2500       89.8329
         2550       83.7734
         2600       77.8869
         2650       72.2032
         2700       66.7486
         2750       61.5451
         2800       56.6105
         2850       51.9574
         2900       47.5938
         2950       43.5228
         3000       39.7432
         3050       36.2498
         3100       33.0341
         3150       30.0848
         3200       27.3884
         3250       24.9303
         3300       22.6947
         3350       20.6653
         3400       18.8262
         3450       17.1616
         3500       15.6562
         3550       14.2956
         3600       13.0663
         3650       11.9557
         3700       10.9522
         3750       10.0451
         3800       9.22479
         3850       8.48246
         3900       7.81019
         3950       7.20081
         4000       6.64791
         4050       6.14573
         4100       5.68911
         4150       5.27344
         4200       4.89461
         4250       4.54891
         4300       4.23308
         4350       3.94416
         4400       3.67953
         4450       3.43684
         4500         3.214
         4550       3.00913
         4600       2.82054
         4650       2.64672
         4700       2.48633
         4750       2.33814
         4800       2.20108
         4850       2.07415
         4900       1.95647
         4950       1.84725
         5000       1.74577
