# Probe 0 (0.05 0.05 0.005)
#       Probe             0
#        Time
           50    0.00861594
          100    0.00861592
          150    0.00861586
          200    0.00861566
          250    0.00861523
          300    0.00861441
          350     0.0086131
          400    0.00861098
          450    0.00860784
          500     0.0086034
          550    0.00859734
          600    0.00858931
          650    0.00857893
          700    0.00856578
          750    0.00854944
          800    0.00852942
          850    0.00850524
          900     0.0084764
          950    0.00844236
         1000     0.0084026
         1050    0.00835659
         1100    0.00830378
         1150    0.00824364
         1200    0.00817568
         1250    0.00809941
         1300    0.00801437
         1350    0.00792016
         1400     0.0078164
         1450    0.00770281
         1500    0.00757915
         1550    0.00744524
         1600    0.00730101
         1650    0.00714646
         1700    0.00698168
         1750    0.00680686
         1800    0.00662229
         1850    0.00642836
         1900    0.00622556
         1950    0.00601449
         2000    0.00579585
         2050    0.00557045
         2100    0.00533919
         2150    0.00510307
         2200     0.0048632
         2250    0.00462075
         2300    0.00437698
         2350     0.0041332
         2400    0.00389075
         2450    0.00365099
         2500    0.00341527
         2550     0.0031849
         2600     0.0029611
         2650    0.00274502
         2700    0.00253765
         2750    0.00233982
         2800    0.00215222
         2850    0.00197532
         2900    0.00180942
         2950    0.00165465
         3000    0.00151096
         3050    0.00137815
         3100    0.00125589
         3150    0.00114376
         3200    0.00104125
         3250     0.0009478
         3300   0.000862805
         3350   0.000785655
         3400   0.000715736
         3450    0.00065245
         3500   0.000595217
         3550    0.00054349
         3600   0.000496755
         3650   0.000454532
         3700   0.000416379
         3750   0.000381894
         3800   0.000350708
         3850   0.000322486
         3900   0.000296928
         3950    0.00027376
         4000    0.00025274
         4050   0.000233648
         4100   0.000216288
         4150   0.000200486
         4200   0.000186083
         4250   0.000172941
         4300   0.000160933
         4350   0.000149949
         4400   0.000139888
         4450   0.000130662
         4500    0.00012219
         4550   0.000114401
         4600   0.000107231
         4650   0.000100623
         4700   9.45251e-05
         4750   8.88915e-05
         4800   8.36806e-05
         4850    7.8855e-05
         4900   7.43812e-05
         4950   7.02289e-05
         5000   6.63706e-05
