# Probe 0 (0.05 0.05 0.005)
#       Probe             0
#        Time
           50       227.628
          100       227.627
          150       227.626
          200       227.621
          250       227.609
          300       227.588
          350       227.553
          400       227.497
          450       227.415
          500       227.298
          550       227.139
          600       226.927
          650       226.654
          700       226.309
          750       225.879
          800       225.352
          850       224.716
          900       223.957
          950       223.062
         1000       222.016
         1050       220.806
         1100       219.417
         1150       217.835
         1200       216.048
         1250       214.041
         1300       211.805
         1350       209.326
         1400       206.597
         1450        203.61
         1500       200.357
         1550       196.835
         1600       193.041
         1650       188.976
         1700       184.641
         1750       180.043
         1800       175.188
         1850       170.087
         1900       164.753
         1950       159.201
         2000        153.45
         2050       147.521
         2100       141.438
         2150       135.228
         2200       128.918
         2250       122.541
         2300       116.129
         2350       109.717
         2400        103.34
         2450       97.0331
         2500       90.8329
         2550       84.7734
         2600       78.8869
         2650       73.2032
         2700       67.7486
         2750       62.5451
         2800       57.6105
         2850       52.9574
         2900       48.5938
         2950       44.5228
         3000       40.7432
         3050       37.2498
         3100       34.0341
         3150       31.0848
         3200       28.3884
         3250       25.9303
         3300       23.6947
         3350       21.6653
         3400       19.8262
         3450       18.1616
         3500       16.6562
         3550       15.2956
         3600       14.0663
         3650       12.9557
         3700       11.9522
         3750       11.0451
         3800       10.2248
         3850       9.48246
         3900       8.81019
         3950       8.20081
         4000       7.64791
         4050       7.14573
         4100       6.68911
         4150       6.27344
         4200       5.89461
         4250       5.54891
         4300       5.23308
         4350       4.94416
         4400       4.67953
         4450       4.43684
         4500         4.214
         4550       4.00913
         4600       3.82054
         4650       3.64672
         4700       3.48633
         4750       3.33814
         4800       3.20108
         4850       3.07415
         4900       2.95647
         4950       2.84725
         5000       2.74577
