# Probe 0 (0.05 0.05 0.005)
#       Probe             0
#        Time
           50       7.07168
          100       7.07167
          150       7.07166
          200       7.07164
          250       7.07157
          300       7.07145
          350       7.07125
          400       7.07093
          450       7.07046
          500       7.06979
          550       7.06887
          600       7.06766
          650       7.06609
          700        7.0641
          750       7.06163
          800       7.05859
          850        7.0549
          900        7.0505
          950       7.04528
         1000       7.03916
         1050       7.03203
         1100       7.02381
         1150       7.01438
         1200       7.00365
         1250       6.99149
         1300       6.97781
         1350       6.96247
         1400       6.94538
         1450        6.9264
         1500       6.90541
         1550        6.8823
         1600       6.85695
         1650       6.82922
         1700       6.79899
         1750       6.76613
         1800       6.73052
         1850       6.69202
         1900        6.6505
         1950       6.60584
         2000        6.5579
         2050       6.50656
         2100        6.4517
         2150        6.3932
         2200       6.33094
         2250       6.26485
         2300       6.19482
         2350       6.12082
         2400        6.0428
         2450       5.96076
         2500       5.87473
         2550       5.78478
         2600       5.69101
         2650       5.59359
         2700        5.4927
         2750       5.38858
         2800        5.2815
         2850       5.17178
         2900       5.05974
         2950       4.94575
         3000       4.83017
         3050       4.71337
         3100       4.59574
         3150       4.47764
         3200       4.35942
         3250       4.24142
         3300       4.12395
         3350        4.0073
         3400       3.89172
         3450       3.77746
         3500       3.66473
         3550        3.5537
         3600       3.44454
         3650       3.33738
         3700       3.23234
         3750       3.12951
         3800       3.02896
         3850       2.93076
         3900       2.83496
         3950       2.74157
         4000       2.65063
         4050       2.56214
         4100        2.4761
         4150       2.39252
         4200       2.31136
         4250       2.23262
         4300       2.15627
         4350       2.08228
         4400       2.01061
         4450       1.94122
         4500       1.87408
         4550       1.80915
         4600       1.74637
         4650       1.68571
         4700        1.6271
         4750       1.57051
         4800       1.51589
         4850       1.46318
         4900       1.41232
         4950       1.36328
         5000       1.31599
