# Probe 0 (0.05 0.05 0.005)
#       Probe             0
#        Time
           50   1.17944e+07
          100   1.17943e+07
          150   1.17941e+07
          200   1.17933e+07
          250   1.17915e+07
          300   1.17882e+07
          350   1.17828e+07
          400   1.17741e+07
          450   1.17613e+07
          500   1.17432e+07
          550   1.17185e+07
          600   1.16859e+07
          650   1.16437e+07
          700   1.15905e+07
          750   1.15246e+07
          800   1.14442e+07
          850   1.13476e+07
          900    1.1233e+07
          950   1.10989e+07
         1000   1.09435e+07
         1050   1.07655e+07
         1100   1.05636e+07
         1150   1.03368e+07
         1200   1.00844e+07
         1250   9.80604e+06
         1300   9.50181e+06
         1350   9.17218e+06
         1400    8.8181e+06
         1450   8.44103e+06
         1500    8.0429e+06
         1550   7.62614e+06
         1600   7.19363e+06
         1650   6.74867e+06
         1700   6.29489e+06
         1750    5.8362e+06
         1800    5.3767e+06
         1850   4.92058e+06
         1900   4.47199e+06
         1950   4.03496e+06
         2000   3.61329e+06
         2050   3.21044e+06
         2100   2.82945e+06
         2150   2.47285e+06
         2200   2.14262e+06
         2250   1.84012e+06
         2300   1.56612e+06
         2350   1.32075e+06
         2400   1.10357e+06
         2450        913608
         2500        749427
         2550        609226
         2600        490924
         2650        392275
         2700        310957
         2750        244670
         2800        191207
         2850        148518
         2900        114747
         2950       88256.7
         3000       67634.2
         3050       51686.1
         3100       39422.4
         3150       30036.1
         3200       22878.4
         3250         17435
         3300         13303
         3350       10169.4
         3400        7793.3
         3450       5990.49
         3500       4620.91
         3550       3578.49
         3600       2783.17
         3650       2174.61
         3700       1707.42
         3750       1347.44
         3800       1068.96
         3850       852.636
         3900       683.841
         3950       551.531
         4000        447.33
         4050       364.871
         4100       299.299
         4150       246.898
         4200       204.816
         4250       170.854
         4300       143.308
         4350       120.859
         4400       102.472
         4450       87.3419
         4500       74.8315
         4550       64.4391
         4600       55.7664
         4650       48.4961
         4700       42.3745
         4750       37.1976
         4800       32.8011
         4850       29.0519
         4900       25.8418
         4950       23.0823
         5000        20.701
