0.040000 
0.040000 
0.039988 
0.039940 
0.039811 
0.039543 
0.039065 
0.038306 
0.037200 
0.035719 
0.033844 
0.031593 
0.029072 
0.026747 
0.024369 
0.022020 
0.019762 
0.017769 
0.015926 
0.014251 
0.012737 
0.011309 
0.010047 
0.008933 
0.007956 
0.007132 
0.006408 
0.005769 
0.005207 
0.004620 
0.004113 
0.003674 
0.003294 
0.002963 
0.002674 
0.002421 
0.002198 
0.002002 
0.001828 
0.001674 
0.001537 
0.001460 
0.001387 
0.001320 
0.001257 
