# Probe 0 (0.05 0.05 0.005)
#       Probe             0
#        Time
          0.5   5.40112e-21
            1   9.40751e-20
          1.5   4.95762e-19
            2   1.60633e-18
          2.5   3.97671e-18
            3    8.3657e-18
          3.5   1.56941e-17
            4   2.70576e-17
          4.5   4.37267e-17
            5   6.71466e-17
          5.5   9.89375e-17
            6   1.40894e-16
          6.5   1.94987e-16
            7    2.6336e-16
          7.5   3.48333e-16
            8     4.524e-16
          8.5   5.78231e-16
            9   7.28668e-16
          9.5   9.06732e-16
           10   1.11562e-15
         10.5   1.35869e-15
           11   1.63949e-15
         11.5   1.96174e-15
           12   2.32934e-15
         12.5   2.74634e-15
           13     3.217e-15
         13.5   3.74573e-15
           14   4.33713e-15
         14.5   4.99595e-15
           15   5.72714e-15
         15.5   6.53582e-15
           16   7.42729e-15
         16.5     8.407e-15
           17    9.4806e-15
         17.5   1.06539e-14
           18   1.19329e-14
         18.5   1.33238e-14
           19   1.48328e-14
         19.5   1.64666e-14
           20   1.82318e-14
         20.5   2.01352e-14
           21    2.2184e-14
         21.5   2.43853e-14
           22   2.67465e-14
         22.5   2.92752e-14
           23   3.19791e-14
         23.5   3.48662e-14
           24   3.79445e-14
         24.5   4.12222e-14
           25   4.47079e-14
         25.5   4.84102e-14
           26   5.23377e-14
         26.5   5.64996e-14
           27   6.09049e-14
         27.5   6.55629e-14
           28   7.04832e-14
         28.5   7.56753e-14
           29   8.11492e-14
         29.5   8.69148e-14
           30   9.29823e-14
         30.5   9.93622e-14
           31   1.06065e-13
         31.5   1.13101e-13
           32   1.20482e-13
         32.5   1.28218e-13
           33   1.36321e-13
         33.5   1.44802e-13
           34   1.53672e-13
         34.5   1.62945e-13
           35    1.7263e-13
         35.5   1.82741e-13
           36    1.9329e-13
         36.5   2.04289e-13
           37   2.15751e-13
         37.5   2.27689e-13
           38   2.40116e-13
         38.5   2.53044e-13
           39   2.66488e-13
         39.5    2.8046e-13
           40   2.94975e-13
         40.5   3.10045e-13
           41   3.25687e-13
         41.5   3.41912e-13
           42   3.58737e-13
         42.5   3.76175e-13
           43   3.94241e-13
         43.5    4.1295e-13
           44   4.32317e-13
         44.5   4.52358e-13
           45   4.73088e-13
         45.5   4.94522e-13
           46   5.16676e-13
         46.5   5.39566e-13
           47   5.63209e-13
         47.5    5.8762e-13
           48   6.12817e-13
         48.5   6.38815e-13
           49   6.65632e-13
         49.5   6.93284e-13
           50   7.21789e-13
         50.5   7.51165e-13
           51   7.81427e-13
         51.5   8.12596e-13
           52   8.44687e-13
         52.5    8.7772e-13
           53   9.11713e-13
         53.5   9.46683e-13
           54    9.8265e-13
         54.5   1.01963e-12
           55   1.05765e-12
         55.5   1.09672e-12
           56   1.13686e-12
         56.5   1.17809e-12
           57   1.22044e-12
         57.5   1.26392e-12
           58   1.30855e-12
         58.5   1.35435e-12
           59   1.40134e-12
         59.5   1.44954e-12
           60   1.49898e-12
         60.5   1.54967e-12
           61   1.60164e-12
         61.5    1.6549e-12
           62   1.70948e-12
         62.5    1.7654e-12
           63   1.82268e-12
         63.5   1.88134e-12
           64   1.94141e-12
         64.5   2.00291e-12
           65   2.06585e-12
         65.5   2.13027e-12
           66   2.19618e-12
         66.5   2.26361e-12
           67   2.33258e-12
         67.5   2.40311e-12
           68   2.47524e-12
         68.5   2.54897e-12
           69   2.62434e-12
         69.5   2.70136e-12
           70   2.78008e-12
         70.5   2.86049e-12
           71   2.94265e-12
         71.5   3.02655e-12
           72   3.11224e-12
         72.5   3.19974e-12
           73   3.28907e-12
         73.5   3.38025e-12
           74   3.47332e-12
         74.5    3.5683e-12
           75   3.66521e-12
         75.5   3.76409e-12
           76   3.86495e-12
         76.5   3.96782e-12
           77   4.07274e-12
         77.5   4.17972e-12
           78   4.28879e-12
         78.5   4.39999e-12
           79   4.51333e-12
         79.5   4.62885e-12
           80   4.74658e-12
         80.5   4.86653e-12
           81   4.98875e-12
         81.5   5.11325e-12
           82   5.24007e-12
         82.5   5.36923e-12
           83   5.50077e-12
         83.5    5.6347e-12
           84   5.77107e-12
         84.5    5.9099e-12
           85   6.05122e-12
         85.5   6.19506e-12
           86   6.34145e-12
         86.5   6.49042e-12
           87   6.64199e-12
         87.5   6.79621e-12
           88    6.9531e-12
         88.5   7.11268e-12
           89     7.275e-12
         89.5   7.44008e-12
           90   7.60796e-12
         90.5   7.77866e-12
           91   7.95221e-12
         91.5   8.12866e-12
           92   8.30802e-12
         92.5   8.49034e-12
           93   8.67564e-12
         93.5   8.86396e-12
           94   9.05532e-12
         94.5   9.24977e-12
           95   9.44734e-12
         95.5   9.64805e-12
           96   9.85194e-12
         96.5   1.00591e-11
           97   1.02694e-11
         97.5    1.0483e-11
           98      1.07e-11
         98.5   1.09203e-11
           99    1.1144e-11
         99.5   1.13711e-11
          100   1.16017e-11
        100.5   1.18357e-11
          101   1.20733e-11
        101.5   1.23144e-11
          102   1.25592e-11
        102.5   1.28075e-11
          103   1.30595e-11
        103.5   1.33153e-11
          104   1.35747e-11
        104.5    1.3838e-11
          105    1.4105e-11
        105.5   1.43759e-11
          106   1.46507e-11
        106.5   1.49294e-11
          107    1.5212e-11
        107.5   1.54987e-11
          108   1.57893e-11
        108.5   1.60841e-11
          109   1.63829e-11
        109.5   1.66859e-11
          110   1.69931e-11
        110.5   1.73045e-11
          111   1.76202e-11
        111.5   1.79402e-11
          112   1.82645e-11
        112.5   1.85932e-11
          113   1.89263e-11
        113.5   1.92638e-11
          114   1.96059e-11
        114.5   1.99524e-11
          115   2.03036e-11
        115.5   2.06594e-11
          116   2.10198e-11
        116.5   2.13849e-11
          117   2.17548e-11
        117.5   2.21294e-11
          118   2.25089e-11
        118.5   2.28932e-11
          119   2.32824e-11
        119.5   2.36766e-11
          120   2.40757e-11
        120.5   2.44799e-11
          121   2.48891e-11
        121.5   2.53035e-11
          122    2.5723e-11
        122.5   2.61477e-11
          123   2.65776e-11
        123.5   2.70128e-11
          124   2.74533e-11
        124.5   2.78992e-11
          125   2.83505e-11
        125.5   2.88073e-11
          126   2.92696e-11
        126.5   2.97374e-11
          127   3.02107e-11
        127.5   3.06898e-11
          128   3.11745e-11
        128.5   3.16649e-11
          129    3.2161e-11
        129.5    3.2663e-11
          130   3.31708e-11
        130.5   3.36846e-11
          131   3.42042e-11
        131.5   3.47299e-11
          132   3.52616e-11
        132.5   3.57994e-11
          133   3.63433e-11
        133.5   3.68934e-11
          134   3.74497e-11
        134.5   3.80123e-11
          135   3.85812e-11
        135.5   3.91564e-11
          136   3.97381e-11
        136.5   4.03262e-11
          137   4.09208e-11
        137.5    4.1522e-11
          138   4.21298e-11
        138.5   4.27442e-11
          139   4.33653e-11
        139.5   4.39932e-11
          140   4.46278e-11
        140.5   4.52693e-11
          141   4.59177e-11
        141.5    4.6573e-11
          142   4.72353e-11
        142.5   4.79047e-11
          143   4.85811e-11
        143.5   4.92647e-11
          144   4.99555e-11
        144.5   5.06535e-11
          145   5.13588e-11
        145.5   5.20715e-11
          146   5.27915e-11
        146.5    5.3519e-11
          147   5.42539e-11
        147.5   5.49964e-11
          148   5.57465e-11
        148.5   5.65043e-11
          149   5.72697e-11
        149.5   5.80429e-11
          150    5.8824e-11
        150.5   5.96128e-11
          151   6.04096e-11
        151.5   6.12143e-11
          152   6.20271e-11
        152.5   6.28479e-11
          153   6.36768e-11
        153.5   6.45139e-11
          154   6.53592e-11
        154.5   6.62128e-11
          155   6.70748e-11
        155.5   6.79451e-11
          156   6.88239e-11
        156.5   6.97111e-11
          157    7.0607e-11
        157.5   7.15114e-11
          158   7.24245e-11
        158.5   7.33463e-11
          159   7.42769e-11
        159.5   7.52163e-11
          160   7.61645e-11
        160.5   7.71218e-11
          161    7.8088e-11
        161.5   7.90633e-11
          162   8.00476e-11
        162.5   8.10412e-11
          163   8.20439e-11
        163.5    8.3056e-11
          164   8.40773e-11
        164.5   8.51081e-11
          165   8.61483e-11
        165.5    8.7198e-11
          166   8.82573e-11
        166.5   8.93262e-11
          167   9.04048e-11
        167.5   9.14931e-11
          168   9.25912e-11
        168.5   9.36992e-11
          169   9.48171e-11
        169.5    9.5945e-11
          170   9.70829e-11
        170.5   9.82309e-11
          171    9.9389e-11
        171.5   1.00557e-10
          172   1.01736e-10
        172.5   1.02925e-10
          173   1.04124e-10
        173.5   1.05334e-10
          174   1.06554e-10
        174.5   1.07785e-10
          175   1.09027e-10
        175.5   1.10279e-10
          176   1.11542e-10
        176.5   1.12816e-10
          177     1.141e-10
        177.5   1.15396e-10
          178   1.16702e-10
        178.5    1.1802e-10
          179   1.19349e-10
        179.5   1.20689e-10
          180    1.2204e-10
        180.5   1.23403e-10
          181   1.24777e-10
        181.5   1.26162e-10
          182   1.27559e-10
        182.5   1.28967e-10
          183   1.30387e-10
        183.5   1.31819e-10
          184   1.33263e-10
        184.5   1.34718e-10
          185   1.36185e-10
        185.5   1.37664e-10
          186   1.39156e-10
        186.5   1.40659e-10
          187   1.42174e-10
        187.5   1.43702e-10
          188   1.45242e-10
        188.5   1.46794e-10
          189   1.48359e-10
        189.5   1.49936e-10
          190   1.51526e-10
        190.5   1.53128e-10
          191   1.54743e-10
        191.5   1.56371e-10
          192   1.58011e-10
        192.5   1.59664e-10
          193   1.61331e-10
        193.5    1.6301e-10
          194   1.64703e-10
        194.5   1.66408e-10
          195   1.68127e-10
        195.5   1.69859e-10
          196   1.71604e-10
        196.5   1.73363e-10
          197   1.75135e-10
        197.5   1.76921e-10
          198   1.78721e-10
        198.5   1.80534e-10
          199   1.82361e-10
        199.5   1.84202e-10
          200   1.86056e-10
        200.5   1.87925e-10
          201   1.89808e-10
        201.5   1.91704e-10
          202   1.93615e-10
        202.5   1.95541e-10
          203    1.9748e-10
        203.5   1.99434e-10
          204   2.01403e-10
        204.5   2.03385e-10
          205   2.05383e-10
        205.5   2.07395e-10
          206   2.09422e-10
        206.5   2.11464e-10
          207   2.13521e-10
        207.5   2.15592e-10
          208   2.17679e-10
        208.5   2.19781e-10
          209   2.21898e-10
        209.5    2.2403e-10
          210   2.26178e-10
        210.5   2.28341e-10
          211   2.30519e-10
        211.5   2.32713e-10
          212   2.34923e-10
        212.5   2.37148e-10
          213   2.39389e-10
        213.5   2.41646e-10
          214   2.43919e-10
        214.5   2.46208e-10
          215   2.48513e-10
        215.5   2.50834e-10
          216   2.53171e-10
        216.5   2.55525e-10
          217   2.57895e-10
        217.5   2.60281e-10
          218   2.62684e-10
        218.5   2.65104e-10
          219    2.6754e-10
        219.5   2.69993e-10
          220   2.72463e-10
        220.5   2.74949e-10
          221   2.77453e-10
        221.5   2.79974e-10
          222   2.82512e-10
        222.5   2.85067e-10
          223   2.87639e-10
        223.5   2.90229e-10
          224   2.92836e-10
        224.5   2.95461e-10
          225   2.98103e-10
        225.5   3.00763e-10
          226   3.03441e-10
        226.5   3.06137e-10
          227    3.0885e-10
        227.5   3.11582e-10
          228   3.14331e-10
        228.5   3.17099e-10
          229   3.19885e-10
        229.5    3.2269e-10
          230   3.25512e-10
        230.5   3.28353e-10
          231   3.31213e-10
        231.5   3.34092e-10
          232   3.36989e-10
        232.5   3.39905e-10
          233    3.4284e-10
        233.5   3.45793e-10
          234   3.48766e-10
        234.5   3.51758e-10
          235   3.54769e-10
        235.5     3.578e-10
          236    3.6085e-10
        236.5   3.63919e-10
          237   3.67008e-10
        237.5   3.70116e-10
          238   3.73244e-10
        238.5   3.76392e-10
          239    3.7956e-10
        239.5   3.82748e-10
          240   3.85956e-10
        240.5   3.89184e-10
          241   3.92432e-10
        241.5     3.957e-10
          242   3.98989e-10
        242.5   4.02298e-10
          243   4.05628e-10
        243.5   4.08978e-10
          244    4.1235e-10
        244.5   4.15742e-10
          245   4.19154e-10
        245.5   4.22588e-10
          246   4.26043e-10
        246.5   4.29519e-10
          247   4.33016e-10
        247.5   4.36535e-10
          248   4.40075e-10
        248.5   4.43636e-10
          249   4.47219e-10
        249.5   4.50824e-10
          250    4.5445e-10
        250.5   4.58098e-10
          251   4.61768e-10
        251.5   4.65461e-10
          252   4.69175e-10
        252.5   4.72911e-10
          253    4.7667e-10
        253.5   4.80451e-10
          254   4.84255e-10
        254.5   4.88081e-10
          255   4.91929e-10
        255.5   4.95801e-10
          256   4.99695e-10
        256.5   5.03612e-10
          257   5.07552e-10
        257.5   5.11515e-10
          258   5.15502e-10
        258.5   5.19511e-10
          259   5.23544e-10
        259.5     5.276e-10
          260    5.3168e-10
        260.5   5.35784e-10
          261   5.39911e-10
        261.5   5.44062e-10
          262   5.48237e-10
        262.5   5.52436e-10
          263   5.56659e-10
        263.5   5.60906e-10
          264   5.65177e-10
        264.5   5.69473e-10
          265   5.73793e-10
        265.5   5.78138e-10
          266   5.82507e-10
        266.5   5.86901e-10
          267    5.9132e-10
        267.5   5.95764e-10
          268   6.00232e-10
        268.5   6.04726e-10
          269   6.09245e-10
        269.5    6.1379e-10
          270   6.18359e-10
        270.5   6.22955e-10
          271   6.27575e-10
        271.5   6.32222e-10
          272   6.36894e-10
        272.5   6.41592e-10
          273   6.46316e-10
        273.5   6.51066e-10
          274   6.55842e-10
        274.5   6.60644e-10
          275   6.65473e-10
        275.5   6.70328e-10
          276   6.75209e-10
        276.5   6.80118e-10
          277   6.85053e-10
        277.5   6.90014e-10
          278   6.95003e-10
        278.5   7.00018e-10
          279   7.05061e-10
        279.5   7.10131e-10
          280   7.15228e-10
        280.5   7.20353e-10
          281   7.25505e-10
        281.5   7.30685e-10
          282   7.35892e-10
        282.5   7.41127e-10
          283    7.4639e-10
        283.5   7.51681e-10
          284      7.57e-10
        284.5   7.62348e-10
          285   7.67723e-10
        285.5   7.73127e-10
          286    7.7856e-10
        286.5   7.84021e-10
          287    7.8951e-10
        287.5   7.95029e-10
          288   8.00576e-10
        288.5   8.06152e-10
          289   8.11758e-10
        289.5   8.17392e-10
          290   8.23056e-10
        290.5   8.28749e-10
          291   8.34472e-10
        291.5   8.40224e-10
          292   8.46006e-10
        292.5   8.51818e-10
          293    8.5766e-10
        293.5   8.63531e-10
          294   8.69433e-10
        294.5   8.75365e-10
          295   8.81327e-10
        295.5    8.8732e-10
          296   8.93343e-10
        296.5   8.99397e-10
          297   9.05482e-10
        297.5   9.11597e-10
          298   9.17743e-10
        298.5   9.23921e-10
          299   9.30129e-10
        299.5   9.36369e-10
          300    9.4264e-10
        300.5   9.48942e-10
          301   9.55276e-10
        301.5   9.61642e-10
          302   9.68039e-10
        302.5   9.74468e-10
          303    9.8093e-10
        303.5   9.87423e-10
          304   9.93948e-10
        304.5   1.00051e-09
          305    1.0071e-09
        305.5   1.01372e-09
          306   1.02037e-09
        306.5   1.02706e-09
          307   1.03378e-09
        307.5   1.04054e-09
          308   1.04732e-09
        308.5   1.05414e-09
          309     1.061e-09
        309.5   1.06788e-09
          310    1.0748e-09
        310.5   1.08176e-09
          311   1.08874e-09
        311.5   1.09577e-09
          312   1.10282e-09
        312.5   1.10991e-09
          313   1.11703e-09
        313.5   1.12419e-09
          314   1.13138e-09
        314.5   1.13861e-09
          315   1.14587e-09
        315.5   1.15316e-09
          316   1.16049e-09
        316.5   1.16786e-09
          317   1.17526e-09
        317.5   1.18269e-09
          318   1.19017e-09
        318.5   1.19767e-09
          319   1.20521e-09
        319.5   1.21279e-09
          320    1.2204e-09
        320.5   1.22805e-09
          321   1.23573e-09
        321.5   1.24345e-09
          322   1.25121e-09
        322.5     1.259e-09
          323   1.26683e-09
        323.5    1.2747e-09
          324    1.2826e-09
        324.5   1.29054e-09
          325   1.29851e-09
        325.5   1.30652e-09
          326   1.31457e-09
        326.5   1.32266e-09
          327   1.33078e-09
        327.5   1.33894e-09
          328   1.34714e-09
        328.5   1.35538e-09
          329   1.36365e-09
        329.5   1.37196e-09
          330   1.38031e-09
        330.5    1.3887e-09
          331   1.39713e-09
        331.5   1.40559e-09
          332   1.41409e-09
        332.5   1.42263e-09
          333   1.43121e-09
        333.5   1.43983e-09
          334   1.44849e-09
        334.5   1.45718e-09
          335   1.46592e-09
        335.5   1.47469e-09
          336   1.48351e-09
        336.5   1.49236e-09
          337   1.50125e-09
        337.5   1.51019e-09
          338   1.51916e-09
        338.5   1.52817e-09
          339   1.53722e-09
        339.5   1.54632e-09
          340   1.55545e-09
        340.5   1.56462e-09
          341   1.57383e-09
        341.5   1.58309e-09
          342   1.59238e-09
        342.5   1.60172e-09
          343    1.6111e-09
        343.5   1.62051e-09
          344   1.62997e-09
        344.5   1.63947e-09
          345   1.64902e-09
        345.5    1.6586e-09
          346   1.66822e-09
        346.5   1.67789e-09
          347    1.6876e-09
        347.5   1.69735e-09
          348   1.70715e-09
        348.5   1.71698e-09
          349   1.72686e-09
        349.5   1.73678e-09
          350   1.74674e-09
        350.5   1.75675e-09
          351    1.7668e-09
        351.5   1.77689e-09
          352   1.78703e-09
        352.5    1.7972e-09
          353   1.80743e-09
        353.5   1.81769e-09
          354     1.828e-09
        354.5   1.83835e-09
          355   1.84875e-09
        355.5   1.85919e-09
          356   1.86968e-09
        356.5   1.88021e-09
          357   1.89078e-09
        357.5    1.9014e-09
          358   1.91206e-09
        358.5   1.92277e-09
          359   1.93352e-09
        359.5   1.94432e-09
          360   1.95516e-09
        360.5   1.96605e-09
          361   1.97698e-09
        361.5   1.98796e-09
          362   1.99899e-09
        362.5   2.01006e-09
          363   2.02118e-09
        363.5   2.03234e-09
          364   2.04355e-09
        364.5    2.0548e-09
          365    2.0661e-09
        365.5   2.07745e-09
          366   2.08885e-09
        366.5   2.10029e-09
          367   2.11178e-09
        367.5   2.12331e-09
          368   2.13489e-09
        368.5   2.14652e-09
          369    2.1582e-09
        369.5   2.16993e-09
          370    2.1817e-09
        370.5   2.19352e-09
          371   2.20539e-09
        371.5   2.21731e-09
          372   2.22927e-09
        372.5   2.24128e-09
          373   2.25335e-09
        373.5   2.26546e-09
          374   2.27761e-09
        374.5   2.28982e-09
          375   2.30208e-09
        375.5   2.31439e-09
          376   2.32674e-09
        376.5   2.33915e-09
          377    2.3516e-09
        377.5    2.3641e-09
          378   2.37666e-09
        378.5   2.38926e-09
          379   2.40192e-09
        379.5   2.41462e-09
          380   2.42737e-09
        380.5   2.44018e-09
          381   2.45303e-09
        381.5   2.46594e-09
          382    2.4789e-09
        382.5   2.49191e-09
          383   2.50496e-09
        383.5   2.51808e-09
          384   2.53124e-09
        384.5   2.54445e-09
          385   2.55772e-09
        385.5   2.57103e-09
          386    2.5844e-09
        386.5   2.59782e-09
          387   2.61129e-09
        387.5   2.62482e-09
          388    2.6384e-09
        388.5   2.65203e-09
          389   2.66571e-09
        389.5   2.67945e-09
          390   2.69324e-09
        390.5   2.70708e-09
          391   2.72097e-09
        391.5   2.73492e-09
          392   2.74892e-09
        392.5   2.76298e-09
          393   2.77709e-09
        393.5   2.79126e-09
          394   2.80547e-09
        394.5   2.81975e-09
          395   2.83407e-09
        395.5   2.84845e-09
          396   2.86289e-09
        396.5   2.87738e-09
          397   2.89193e-09
        397.5   2.90653e-09
          398   2.92118e-09
        398.5   2.93589e-09
          399   2.95066e-09
        399.5   2.96548e-09
          400   2.98036e-09
        400.5    2.9953e-09
          401   3.01029e-09
        401.5   3.02533e-09
          402   3.04043e-09
        402.5   3.05559e-09
          403   3.07081e-09
        403.5   3.08608e-09
          404   3.10141e-09
        404.5    3.1168e-09
          405   3.13224e-09
        405.5   3.14774e-09
          406    3.1633e-09
        406.5   3.17892e-09
          407   3.19459e-09
        407.5   3.21032e-09
          408   3.22611e-09
        408.5   3.24196e-09
          409   3.25787e-09
        409.5   3.27383e-09
          410   3.28985e-09
        410.5   3.30594e-09
          411   3.32208e-09
        411.5   3.33828e-09
          412   3.35454e-09
        412.5   3.37085e-09
          413   3.38723e-09
        413.5   3.40367e-09
          414   3.42017e-09
        414.5   3.43672e-09
          415   3.45334e-09
        415.5   3.47002e-09
          416   3.48676e-09
        416.5   3.50356e-09
          417   3.52041e-09
        417.5   3.53733e-09
          418   3.55431e-09
        418.5   3.57136e-09
          419   3.58846e-09
        419.5   3.60562e-09
          420   3.62285e-09
        420.5   3.64014e-09
          421   3.65748e-09
        421.5    3.6749e-09
          422   3.69237e-09
        422.5    3.7099e-09
          423    3.7275e-09
        423.5   3.74516e-09
          424   3.76288e-09
        424.5   3.78067e-09
          425   3.79852e-09
        425.5   3.81643e-09
          426   3.83441e-09
        426.5   3.85245e-09
          427   3.87055e-09
        427.5   3.88871e-09
          428   3.90694e-09
        428.5   3.92524e-09
          429   3.94359e-09
        429.5   3.96202e-09
          430    3.9805e-09
        430.5   3.99905e-09
          431   4.01767e-09
        431.5   4.03635e-09
          432    4.0551e-09
        432.5   4.07391e-09
          433   4.09279e-09
        433.5   4.11173e-09
          434   4.13074e-09
        434.5   4.14981e-09
          435   4.16895e-09
        435.5   4.18815e-09
          436   4.20743e-09
        436.5   4.22677e-09
          437   4.24617e-09
        437.5   4.26564e-09
          438   4.28518e-09
        438.5   4.30479e-09
          439   4.32446e-09
        439.5    4.3442e-09
          440   4.36401e-09
        440.5   4.38388e-09
          441   4.40383e-09
        441.5   4.42384e-09
          442   4.44392e-09
        442.5   4.46407e-09
          443   4.48428e-09
        443.5   4.50457e-09
          444   4.52492e-09
        444.5   4.54534e-09
          445   4.56583e-09
        445.5   4.58639e-09
          446   4.60702e-09
        446.5   4.62772e-09
          447   4.64849e-09
        447.5   4.66933e-09
          448   4.69024e-09
        448.5   4.71122e-09
          449   4.73227e-09
        449.5   4.75339e-09
          450   4.77458e-09
        450.5   4.79584e-09
          451   4.81717e-09
        451.5   4.83858e-09
          452   4.86005e-09
        452.5    4.8816e-09
          453   4.90321e-09
        453.5    4.9249e-09
          454   4.94666e-09
        454.5    4.9685e-09
          455    4.9904e-09
        455.5   5.01238e-09
          456   5.03443e-09
        456.5   5.05655e-09
          457   5.07875e-09
        457.5   5.10102e-09
          458   5.12336e-09
        458.5   5.14577e-09
          459   5.16826e-09
        459.5   5.19083e-09
          460   5.21346e-09
        460.5   5.23617e-09
          461   5.25896e-09
        461.5   5.28181e-09
          462   5.30475e-09
        462.5   5.32775e-09
          463   5.35084e-09
        463.5   5.37399e-09
          464   5.39722e-09
        464.5   5.42053e-09
          465   5.44392e-09
        465.5   5.46737e-09
          466   5.49091e-09
        466.5   5.51452e-09
          467    5.5382e-09
        467.5   5.56197e-09
          468    5.5858e-09
        468.5   5.60972e-09
          469   5.63371e-09
        469.5   5.65778e-09
          470   5.68193e-09
        470.5   5.70615e-09
          471   5.73045e-09
        471.5   5.75483e-09
          472   5.77928e-09
        472.5   5.80382e-09
          473   5.82843e-09
        473.5   5.85312e-09
          474   5.87789e-09
        474.5   5.90273e-09
          475   5.92766e-09
        475.5   5.95266e-09
          476   5.97774e-09
        476.5   6.00291e-09
          477   6.02815e-09
        477.5   6.05347e-09
          478   6.07887e-09
        478.5   6.10435e-09
          479   6.12991e-09
        479.5   6.15555e-09
          480   6.18127e-09
        480.5   6.20708e-09
          481   6.23296e-09
        481.5   6.25892e-09
          482   6.28497e-09
        482.5   6.31109e-09
          483    6.3373e-09
        483.5   6.36359e-09
          484   6.38996e-09
        484.5   6.41641e-09
          485   6.44294e-09
        485.5   6.46956e-09
          486   6.49626e-09
        486.5   6.52304e-09
          487   6.54991e-09
        487.5   6.57685e-09
          488   6.60388e-09
        488.5     6.631e-09
          489   6.65819e-09
        489.5   6.68547e-09
          490   6.71284e-09
        490.5   6.74028e-09
          491   6.76782e-09
        491.5   6.79543e-09
          492   6.82313e-09
        492.5   6.85092e-09
          493   6.87879e-09
        493.5   6.90674e-09
          494   6.93478e-09
        494.5   6.96291e-09
          495   6.99112e-09
        495.5   7.01941e-09
          496    7.0478e-09
        496.5   7.07627e-09
          497   7.10482e-09
        497.5   7.13346e-09
          498   7.16219e-09
        498.5     7.191e-09
          499    7.2199e-09
        499.5   7.24889e-09
          500   7.27797e-09
        500.5   7.30713e-09
          501   7.33638e-09
        501.5   7.36571e-09
          502   7.39514e-09
        502.5   7.42465e-09
          503   7.45426e-09
        503.5   7.48395e-09
          504   7.51373e-09
        504.5   7.54359e-09
          505   7.57355e-09
        505.5    7.6036e-09
          506   7.63373e-09
        506.5   7.66395e-09
          507   7.69427e-09
        507.5   7.72467e-09
          508   7.75517e-09
        508.5   7.78575e-09
          509   7.81643e-09
        509.5   7.84719e-09
          510   7.87805e-09
        510.5   7.90899e-09
          511   7.94003e-09
        511.5   7.97116e-09
          512   8.00238e-09
        512.5   8.03369e-09
          513    8.0651e-09
        513.5   8.09659e-09
          514   8.12818e-09
        514.5   8.15986e-09
          515   8.19164e-09
        515.5    8.2235e-09
          516   8.25546e-09
        516.5   8.28751e-09
          517   8.31966e-09
        517.5    8.3519e-09
          518   8.38423e-09
        518.5   8.41665e-09
          519   8.44917e-09
        519.5   8.48179e-09
          520   8.51449e-09
        520.5    8.5473e-09
          521   8.58019e-09
        521.5   8.61319e-09
          522   8.64627e-09
        522.5   8.67946e-09
          523   8.71273e-09
        523.5   8.74611e-09
          524   8.77958e-09
        524.5   8.81314e-09
          525    8.8468e-09
        525.5   8.88056e-09
          526   8.91442e-09
        526.5   8.94837e-09
          527   8.98241e-09
        527.5   9.01656e-09
          528    9.0508e-09
        528.5   9.08514e-09
          529   9.11958e-09
        529.5   9.15411e-09
          530   9.18875e-09
        530.5   9.22348e-09
          531   9.25831e-09
        531.5   9.29324e-09
          532   9.32826e-09
        532.5   9.36339e-09
          533   9.39861e-09
        533.5   9.43394e-09
          534   9.46936e-09