# Probe 0 (0.05 0.05 0.005)
#       Probe             0
#        Time
          0.5    0.00602647
            1    0.00602647
          1.5    0.00602647
            2    0.00602647
          2.5    0.00602647
            3    0.00602647
          3.5    0.00602647
            4    0.00602647
          4.5    0.00602647
            5    0.00602647
          5.5    0.00602647
            6    0.00602647
          6.5    0.00602647
            7    0.00602647
          7.5    0.00602647
            8    0.00602647
          8.5    0.00602647
            9    0.00602647
          9.5    0.00602647
           10    0.00602647
         10.5    0.00602647
           11    0.00602647
         11.5    0.00602647
           12    0.00602647
         12.5    0.00602647
           13    0.00602647
         13.5    0.00602647
           14    0.00602647
         14.5    0.00602647
           15    0.00602647
         15.5    0.00602647
           16    0.00602647
         16.5    0.00602647
           17    0.00602647
         17.5    0.00602647
           18    0.00602647
         18.5    0.00602647
           19    0.00602647
         19.5    0.00602647
           20    0.00602647
         20.5    0.00602647
           21    0.00602647
         21.5    0.00602647
           22    0.00602647
         22.5    0.00602647
           23    0.00602647
         23.5    0.00602647
           24    0.00602647
         24.5    0.00602647
           25    0.00602647
         25.5    0.00602647
           26    0.00602647
         26.5    0.00602647
           27    0.00602647
         27.5    0.00602647
           28    0.00602647
         28.5    0.00602647
           29    0.00602647
         29.5    0.00602647
           30    0.00602647
         30.5    0.00602647
           31    0.00602647
         31.5    0.00602647
           32    0.00602647
         32.5    0.00602647
           33    0.00602647
         33.5    0.00602647
           34    0.00602647
         34.5    0.00602647
           35    0.00602647
         35.5    0.00602647
           36    0.00602647
         36.5    0.00602647
           37    0.00602647
         37.5    0.00602647
           38    0.00602647
         38.5    0.00602647
           39    0.00602647
         39.5    0.00602647
           40    0.00602647
         40.5    0.00602647
           41    0.00602647
         41.5    0.00602647
           42    0.00602647
         42.5    0.00602647
           43    0.00602647
         43.5    0.00602647
           44    0.00602647
         44.5    0.00602647
           45    0.00602647
         45.5    0.00602647
           46    0.00602647
         46.5    0.00602647
           47    0.00602647
         47.5    0.00602647
           48    0.00602647
         48.5    0.00602647
           49    0.00602647
         49.5    0.00602647
           50    0.00602647
         50.5    0.00602647
           51    0.00602647
         51.5    0.00602647
           52    0.00602647
         52.5    0.00602647
           53    0.00602647
         53.5    0.00602647
           54    0.00602647
         54.5    0.00602647
           55    0.00602647
         55.5    0.00602647
           56    0.00602647
         56.5    0.00602647
           57    0.00602647
         57.5    0.00602647
           58    0.00602647
         58.5    0.00602647
           59    0.00602647
         59.5    0.00602647
           60    0.00602647
         60.5    0.00602647
           61    0.00602647
         61.5    0.00602647
           62    0.00602647
         62.5    0.00602647
           63    0.00602647
         63.5    0.00602647
           64    0.00602647
         64.5    0.00602647
           65    0.00602647
         65.5    0.00602647
           66    0.00602647
         66.5    0.00602647
           67    0.00602647
         67.5    0.00602647
           68    0.00602647
         68.5    0.00602647
           69    0.00602647
         69.5    0.00602647
           70    0.00602647
         70.5    0.00602647
           71    0.00602647
         71.5    0.00602647
           72    0.00602647
         72.5    0.00602647
           73    0.00602647
         73.5    0.00602647
           74    0.00602647
         74.5    0.00602647
           75    0.00602647
         75.5    0.00602647
           76    0.00602647
         76.5    0.00602647
           77    0.00602647
         77.5    0.00602647
           78    0.00602647
         78.5    0.00602647
           79    0.00602647
         79.5    0.00602647
           80    0.00602647
         80.5    0.00602647
           81    0.00602647
         81.5    0.00602647
           82    0.00602647
         82.5    0.00602647
           83    0.00602647
         83.5    0.00602647
           84    0.00602647
         84.5    0.00602647
           85    0.00602647
         85.5    0.00602647
           86    0.00602647
         86.5    0.00602647
           87    0.00602647
         87.5    0.00602647
           88    0.00602647
         88.5    0.00602647
           89    0.00602647
         89.5    0.00602647
           90    0.00602647
         90.5    0.00602647
           91    0.00602647
         91.5    0.00602647
           92    0.00602647
         92.5    0.00602647
           93    0.00602647
         93.5    0.00602647
           94    0.00602647
         94.5    0.00602647
           95    0.00602647
         95.5    0.00602647
           96    0.00602647
         96.5    0.00602647
           97    0.00602647
         97.5    0.00602647
           98    0.00602647
         98.5    0.00602647
           99    0.00602647
         99.5    0.00602647
          100    0.00602647
        100.5    0.00602647
          101    0.00602647
        101.5    0.00602647
          102    0.00602647
        102.5    0.00602647
          103    0.00602647
        103.5    0.00602647
          104    0.00602647
        104.5    0.00602647
          105    0.00602647
        105.5    0.00602647
          106    0.00602647
        106.5    0.00602647
          107    0.00602647
        107.5    0.00602647
          108    0.00602647
        108.5    0.00602647
          109    0.00602647
        109.5    0.00602647
          110    0.00602647
        110.5    0.00602647
          111    0.00602647
        111.5    0.00602647
          112    0.00602647
        112.5    0.00602647
          113    0.00602647
        113.5    0.00602647
          114    0.00602647
        114.5    0.00602647
          115    0.00602647
        115.5    0.00602647
          116    0.00602647
        116.5    0.00602647
          117    0.00602647
        117.5    0.00602647
          118    0.00602647
        118.5    0.00602647
          119    0.00602647
        119.5    0.00602647
          120    0.00602647
        120.5    0.00602647
          121    0.00602647
        121.5    0.00602647
          122    0.00602647
        122.5    0.00602647
          123    0.00602647
        123.5    0.00602647
          124    0.00602647
        124.5    0.00602647
          125    0.00602647
        125.5    0.00602647
          126    0.00602647
        126.5    0.00602647
          127    0.00602647
        127.5    0.00602647
          128    0.00602647
        128.5    0.00602647
          129    0.00602647
        129.5    0.00602647
          130    0.00602647
        130.5    0.00602647
          131    0.00602647
        131.5    0.00602647
          132    0.00602647
        132.5    0.00602647
          133    0.00602647
        133.5    0.00602647
          134    0.00602647
        134.5    0.00602647
          135    0.00602647
        135.5    0.00602647
          136    0.00602647
        136.5    0.00602647
          137    0.00602647
        137.5    0.00602647
          138    0.00602647
        138.5    0.00602647
          139    0.00602647
        139.5    0.00602647
          140    0.00602647
        140.5    0.00602647
          141    0.00602647
        141.5    0.00602647
          142    0.00602647
        142.5    0.00602647
          143    0.00602647
        143.5    0.00602647
          144    0.00602647
        144.5    0.00602647
          145    0.00602647
        145.5    0.00602647
          146    0.00602647
        146.5    0.00602647
          147    0.00602647
        147.5    0.00602647
          148    0.00602647
        148.5    0.00602647
          149    0.00602647
        149.5    0.00602647
          150    0.00602647
        150.5    0.00602647
          151    0.00602647
        151.5    0.00602647
          152    0.00602647
        152.5    0.00602647
          153    0.00602647
        153.5    0.00602647
          154    0.00602647
        154.5    0.00602647
          155    0.00602647
        155.5    0.00602647
          156    0.00602647
        156.5    0.00602647
          157    0.00602647
        157.5    0.00602647
          158    0.00602647
        158.5    0.00602647
          159    0.00602647
        159.5    0.00602647
          160    0.00602647
        160.5    0.00602647
          161    0.00602647
        161.5    0.00602647
          162    0.00602647
        162.5    0.00602647
          163    0.00602647
        163.5    0.00602647
          164    0.00602647
        164.5    0.00602647
          165    0.00602647
        165.5    0.00602647
          166    0.00602647
        166.5    0.00602647
          167    0.00602647
        167.5    0.00602647
          168    0.00602647
        168.5    0.00602647
          169    0.00602647
        169.5    0.00602647
          170    0.00602647
        170.5    0.00602647
          171    0.00602647
        171.5    0.00602647
          172    0.00602647
        172.5    0.00602647
          173    0.00602647
        173.5    0.00602647
          174    0.00602647
        174.5    0.00602647
          175    0.00602647
        175.5    0.00602647
          176    0.00602647
        176.5    0.00602647
          177    0.00602647
        177.5    0.00602647
          178    0.00602647
        178.5    0.00602647
          179    0.00602647
        179.5    0.00602647
          180    0.00602647
        180.5    0.00602647
          181    0.00602647
        181.5    0.00602647
          182    0.00602647
        182.5    0.00602647
          183    0.00602647
        183.5    0.00602647
          184    0.00602647
        184.5    0.00602647
          185    0.00602647
        185.5    0.00602647
          186    0.00602647
        186.5    0.00602647
          187    0.00602647
        187.5    0.00602647
          188    0.00602647
        188.5    0.00602647
          189    0.00602647
        189.5    0.00602647
          190    0.00602647
        190.5    0.00602647
          191    0.00602647
        191.5    0.00602647
          192    0.00602647
        192.5    0.00602647
          193    0.00602647
        193.5    0.00602647
          194    0.00602647
        194.5    0.00602647
          195    0.00602647
        195.5    0.00602647
          196    0.00602647
        196.5    0.00602647
          197    0.00602647
        197.5    0.00602647
          198    0.00602647
        198.5    0.00602647
          199    0.00602647
        199.5    0.00602647
          200    0.00602647
        200.5    0.00602647
          201    0.00602647
        201.5    0.00602647
          202    0.00602647
        202.5    0.00602647
          203    0.00602647
        203.5    0.00602647
          204    0.00602647
        204.5    0.00602647
          205    0.00602647
        205.5    0.00602647
          206    0.00602647
        206.5    0.00602647
          207    0.00602647
        207.5    0.00602647
          208    0.00602647
        208.5    0.00602647
          209    0.00602647
        209.5    0.00602647
          210    0.00602647
        210.5    0.00602647
          211    0.00602647
        211.5    0.00602647
          212    0.00602647
        212.5    0.00602647
          213    0.00602647
        213.5    0.00602647
          214    0.00602647
        214.5    0.00602647
          215    0.00602647
        215.5    0.00602647
          216    0.00602647
        216.5    0.00602647
          217    0.00602647
        217.5    0.00602647
          218    0.00602647
        218.5    0.00602647
          219    0.00602647
        219.5    0.00602647
          220    0.00602647
        220.5    0.00602647
          221    0.00602647
        221.5    0.00602647
          222    0.00602647
        222.5    0.00602647
          223    0.00602647
        223.5    0.00602647
          224    0.00602647
        224.5    0.00602647
          225    0.00602647
        225.5    0.00602647
          226    0.00602647
        226.5    0.00602647
          227    0.00602647
        227.5    0.00602647
          228    0.00602647
        228.5    0.00602647
          229    0.00602647
        229.5    0.00602647
          230    0.00602647
        230.5    0.00602647
          231    0.00602647
        231.5    0.00602647
          232    0.00602647
        232.5    0.00602647
          233    0.00602647
        233.5    0.00602647
          234    0.00602647
        234.5    0.00602647
          235    0.00602647
        235.5    0.00602647
          236    0.00602647
        236.5    0.00602647
          237    0.00602647
        237.5    0.00602647
          238    0.00602647
        238.5    0.00602647
          239    0.00602647
        239.5    0.00602647
          240    0.00602647
        240.5    0.00602647
          241    0.00602647
        241.5    0.00602647
          242    0.00602647
        242.5    0.00602647
          243    0.00602647
        243.5    0.00602647
          244    0.00602647
        244.5    0.00602647
          245    0.00602647
        245.5    0.00602647
          246    0.00602647
        246.5    0.00602647
          247    0.00602647
        247.5    0.00602647
          248    0.00602647
        248.5    0.00602647
          249    0.00602647
        249.5    0.00602647
          250    0.00602647
        250.5    0.00602647
          251    0.00602647
        251.5    0.00602647
          252    0.00602647
        252.5    0.00602647
          253    0.00602647
        253.5    0.00602647
          254    0.00602647
        254.5    0.00602647
          255    0.00602647
        255.5    0.00602647
          256    0.00602647
        256.5    0.00602647
          257    0.00602647
        257.5    0.00602647
          258    0.00602647
        258.5    0.00602647
          259    0.00602647
        259.5    0.00602647
          260    0.00602647
        260.5    0.00602647
          261    0.00602647
        261.5    0.00602647
          262    0.00602647
        262.5    0.00602647
          263    0.00602647
        263.5    0.00602647
          264    0.00602647
        264.5    0.00602647
          265    0.00602647
        265.5    0.00602647
          266    0.00602647
        266.5    0.00602647
          267    0.00602647
        267.5    0.00602647
          268    0.00602647
        268.5    0.00602647
          269    0.00602647
        269.5    0.00602647
          270    0.00602647
        270.5    0.00602647
          271    0.00602647
        271.5    0.00602647
          272    0.00602647
        272.5    0.00602647
          273    0.00602647
        273.5    0.00602647
          274    0.00602647
        274.5    0.00602647
          275    0.00602647
        275.5    0.00602647
          276    0.00602647
        276.5    0.00602647
          277    0.00602647
        277.5    0.00602647
          278    0.00602647
        278.5    0.00602647
          279    0.00602647
        279.5    0.00602647
          280    0.00602647
        280.5    0.00602647
          281    0.00602647
        281.5    0.00602647
          282    0.00602647
        282.5    0.00602647
          283    0.00602647
        283.5    0.00602647
          284    0.00602647
        284.5    0.00602647
          285    0.00602647
        285.5    0.00602647
          286    0.00602647
        286.5    0.00602647
          287    0.00602647
        287.5    0.00602647
          288    0.00602647
        288.5    0.00602647
          289    0.00602647
        289.5    0.00602647
          290    0.00602647
        290.5    0.00602647
          291    0.00602647
        291.5    0.00602647
          292    0.00602647
        292.5    0.00602647
          293    0.00602647
        293.5    0.00602647
          294    0.00602647
        294.5    0.00602647
          295    0.00602647
        295.5    0.00602647
          296    0.00602647
        296.5    0.00602647
          297    0.00602647
        297.5    0.00602647
          298    0.00602647
        298.5    0.00602647
          299    0.00602647
        299.5    0.00602647
          300    0.00602647
        300.5    0.00602647
          301    0.00602647
        301.5    0.00602647
          302    0.00602647
        302.5    0.00602647
          303    0.00602647
        303.5    0.00602647
          304    0.00602647
        304.5    0.00602647
          305    0.00602647
        305.5    0.00602647
          306    0.00602647
        306.5    0.00602647
          307    0.00602647
        307.5    0.00602647
          308    0.00602647
        308.5    0.00602647
          309    0.00602647
        309.5    0.00602647
          310    0.00602647
        310.5    0.00602647
          311    0.00602647
        311.5    0.00602647
          312    0.00602647
        312.5    0.00602647
          313    0.00602647
        313.5    0.00602647
          314    0.00602647
        314.5    0.00602647
          315    0.00602647
        315.5    0.00602647
          316    0.00602647
        316.5    0.00602647
          317    0.00602647
        317.5    0.00602647
          318    0.00602647
        318.5    0.00602647
          319    0.00602647
        319.5    0.00602647
          320    0.00602647
        320.5    0.00602647
          321    0.00602647
        321.5    0.00602647
          322    0.00602647
        322.5    0.00602647
          323    0.00602647
        323.5    0.00602647
          324    0.00602647
        324.5    0.00602647
          325    0.00602647
        325.5    0.00602647
          326    0.00602647
        326.5    0.00602647
          327    0.00602647
        327.5    0.00602647
          328    0.00602647
        328.5    0.00602647
          329    0.00602647
        329.5    0.00602647
          330    0.00602647
        330.5    0.00602647
          331    0.00602647
        331.5    0.00602647
          332    0.00602647
        332.5    0.00602647
          333    0.00602647
        333.5    0.00602647
          334    0.00602647
        334.5    0.00602647
          335    0.00602647
        335.5    0.00602647
          336    0.00602647
        336.5    0.00602647
          337    0.00602647
        337.5    0.00602647
          338    0.00602647
        338.5    0.00602647
          339    0.00602647
        339.5    0.00602647
          340    0.00602647
        340.5    0.00602647
          341    0.00602647
        341.5    0.00602647
          342    0.00602647
        342.5    0.00602647
          343    0.00602647
        343.5    0.00602647
          344    0.00602647
        344.5    0.00602647
          345    0.00602647
        345.5    0.00602647
          346    0.00602647
        346.5    0.00602647
          347    0.00602647
        347.5    0.00602647
          348    0.00602647
        348.5    0.00602647
          349    0.00602647
        349.5    0.00602647
          350    0.00602647
        350.5    0.00602647
          351    0.00602647
        351.5    0.00602647
          352    0.00602647
        352.5    0.00602647
          353    0.00602647
        353.5    0.00602647
          354    0.00602647
        354.5    0.00602647
          355    0.00602647
        355.5    0.00602647
          356    0.00602647
        356.5    0.00602647
          357    0.00602647
        357.5    0.00602647
          358    0.00602647
        358.5    0.00602647
          359    0.00602647
        359.5    0.00602647
          360    0.00602647
        360.5    0.00602647
          361    0.00602647
        361.5    0.00602647
          362    0.00602647
        362.5    0.00602647
          363    0.00602647
        363.5    0.00602647
          364    0.00602647
        364.5    0.00602647
          365    0.00602647
        365.5    0.00602647
          366    0.00602647
        366.5    0.00602647
          367    0.00602647
        367.5    0.00602647
          368    0.00602647
        368.5    0.00602647
          369    0.00602647
        369.5    0.00602647
          370    0.00602647
        370.5    0.00602647
          371    0.00602647
        371.5    0.00602647
          372    0.00602647
        372.5    0.00602647
          373    0.00602647
        373.5    0.00602647
          374    0.00602647
        374.5    0.00602647
          375    0.00602647
        375.5    0.00602647
          376    0.00602647
        376.5    0.00602647
          377    0.00602647
        377.5    0.00602647
          378    0.00602647
        378.5    0.00602647
          379    0.00602647
        379.5    0.00602647
          380    0.00602647
        380.5    0.00602647
          381    0.00602647
        381.5    0.00602647
          382    0.00602647
        382.5    0.00602647
          383    0.00602647
        383.5    0.00602647
          384    0.00602647
        384.5    0.00602647
          385    0.00602647
        385.5    0.00602647
          386    0.00602647
        386.5    0.00602647
          387    0.00602647
        387.5    0.00602647
          388    0.00602647
        388.5    0.00602647
          389    0.00602647
        389.5    0.00602647
          390    0.00602647
        390.5    0.00602647
          391    0.00602647
        391.5    0.00602647
          392    0.00602647
        392.5    0.00602647
          393    0.00602647
        393.5    0.00602647
          394    0.00602647
        394.5    0.00602647
          395    0.00602647
        395.5    0.00602647
          396    0.00602647
        396.5    0.00602647
          397    0.00602647
        397.5    0.00602647
          398    0.00602647
        398.5    0.00602647
          399    0.00602647
        399.5    0.00602647
          400    0.00602647
        400.5    0.00602647
          401    0.00602647
        401.5    0.00602647
          402    0.00602647
        402.5    0.00602647
          403    0.00602647
        403.5    0.00602647
          404    0.00602647
        404.5    0.00602647
          405    0.00602647
        405.5    0.00602647
          406    0.00602647
        406.5    0.00602647
          407    0.00602647
        407.5    0.00602647
          408    0.00602647
        408.5    0.00602647
          409    0.00602647
        409.5    0.00602647
          410    0.00602647
        410.5    0.00602647
          411    0.00602647
        411.5    0.00602647
          412    0.00602647
        412.5    0.00602647
          413    0.00602647
        413.5    0.00602647
          414    0.00602647
        414.5    0.00602647
          415    0.00602647
        415.5    0.00602647
          416    0.00602647
        416.5    0.00602647
          417    0.00602647
        417.5    0.00602647
          418    0.00602647
        418.5    0.00602647
          419    0.00602647
        419.5    0.00602647
          420    0.00602647
        420.5    0.00602647
          421    0.00602647
        421.5    0.00602647
          422    0.00602647
        422.5    0.00602647
          423    0.00602647
        423.5    0.00602647
          424    0.00602647
        424.5    0.00602647
          425    0.00602647
        425.5    0.00602647
          426    0.00602647
        426.5    0.00602647
          427    0.00602647
        427.5    0.00602647
          428    0.00602647
        428.5    0.00602647
          429    0.00602647
        429.5    0.00602647
          430    0.00602647
        430.5    0.00602647
          431    0.00602647
        431.5    0.00602647
          432    0.00602647
        432.5    0.00602647
          433    0.00602647
        433.5    0.00602647
          434    0.00602647
        434.5    0.00602647
          435    0.00602647
        435.5    0.00602647
          436    0.00602647
        436.5    0.00602647
          437    0.00602647
        437.5    0.00602647
          438    0.00602647
        438.5    0.00602647
          439    0.00602647
        439.5    0.00602647
          440    0.00602647
        440.5    0.00602647
          441    0.00602647
        441.5    0.00602647
          442    0.00602647
        442.5    0.00602647
          443    0.00602647
        443.5    0.00602647
          444    0.00602647
        444.5    0.00602647
          445    0.00602647
        445.5    0.00602647
          446    0.00602647
        446.5    0.00602647
          447    0.00602647
        447.5    0.00602647
          448    0.00602647
        448.5    0.00602647
          449    0.00602647
        449.5    0.00602647
          450    0.00602647
        450.5    0.00602647
          451    0.00602647
        451.5    0.00602647
          452    0.00602647
        452.5    0.00602647
          453    0.00602647
        453.5    0.00602647
          454    0.00602647
        454.5    0.00602647
          455    0.00602647
        455.5    0.00602647
          456    0.00602647
        456.5    0.00602647
          457    0.00602647
        457.5    0.00602647
          458    0.00602647
        458.5    0.00602647
          459    0.00602647
        459.5    0.00602647
          460    0.00602647
        460.5    0.00602647
          461    0.00602647
        461.5    0.00602647
          462    0.00602647
        462.5    0.00602647
          463    0.00602647
        463.5    0.00602647
          464    0.00602647
        464.5    0.00602647
          465    0.00602647
        465.5    0.00602647
          466    0.00602647
        466.5    0.00602647
          467    0.00602647
        467.5    0.00602647
          468    0.00602647
        468.5    0.00602647
          469    0.00602647
        469.5    0.00602647
          470    0.00602647
        470.5    0.00602647
          471    0.00602647
        471.5    0.00602647
          472    0.00602647
        472.5    0.00602647
          473    0.00602647
        473.5    0.00602647
          474    0.00602647
        474.5    0.00602647
          475    0.00602647
        475.5    0.00602647
          476    0.00602647
        476.5    0.00602647
          477    0.00602647
        477.5    0.00602647
          478    0.00602647
        478.5    0.00602647
          479    0.00602647
        479.5    0.00602647
          480    0.00602647
        480.5    0.00602647
          481    0.00602647
        481.5    0.00602647
          482    0.00602647
        482.5    0.00602647
          483    0.00602647
        483.5    0.00602647
          484    0.00602647
        484.5    0.00602647
          485    0.00602647
        485.5    0.00602647
          486    0.00602647
        486.5    0.00602647
          487    0.00602647
        487.5    0.00602647
          488    0.00602647
        488.5    0.00602647
          489    0.00602647
        489.5    0.00602647
          490    0.00602647
        490.5    0.00602647
          491    0.00602647
        491.5    0.00602647
          492    0.00602647
        492.5    0.00602647
          493    0.00602647
        493.5    0.00602647
          494    0.00602647
        494.5    0.00602647
          495    0.00602647
        495.5    0.00602647
          496    0.00602647
        496.5    0.00602647
          497    0.00602647
        497.5    0.00602647
          498    0.00602647
        498.5    0.00602647
          499    0.00602647
        499.5    0.00602647
          500    0.00602647
        500.5    0.00602647
          501    0.00602647
        501.5    0.00602647
          502    0.00602647
        502.5    0.00602647
          503    0.00602647
        503.5    0.00602647
          504    0.00602647
        504.5    0.00602647
          505    0.00602647
        505.5    0.00602647
          506    0.00602647
        506.5    0.00602647
          507    0.00602647
        507.5    0.00602647
          508    0.00602647
        508.5    0.00602647
          509    0.00602647
        509.5    0.00602647
          510    0.00602647
        510.5    0.00602647
          511    0.00602647
        511.5    0.00602647
          512    0.00602647
        512.5    0.00602647
          513    0.00602647
        513.5    0.00602647
          514    0.00602647
        514.5    0.00602647
          515    0.00602647
        515.5    0.00602647
          516    0.00602647
        516.5    0.00602647
          517    0.00602647
        517.5    0.00602647
          518    0.00602647
        518.5    0.00602647
          519    0.00602647
        519.5    0.00602647
          520    0.00602647
        520.5    0.00602647
          521    0.00602647
        521.5    0.00602647
          522    0.00602647
        522.5    0.00602647
          523    0.00602647
        523.5    0.00602647
          524    0.00602647
        524.5    0.00602647
          525    0.00602647
        525.5    0.00602647
          526    0.00602647
        526.5    0.00602647
          527    0.00602647
        527.5    0.00602647
          528    0.00602647
        528.5    0.00602647
          529    0.00602647
        529.5    0.00602647
          530    0.00602647
        530.5    0.00602647
          531    0.00602647
        531.5    0.00602647
          532    0.00602647
        532.5    0.00602647
          533    0.00602647
        533.5    0.00602647
          534    0.00602647