# Probe 0 (0.05 0.05 0.005)
#       Probe             0
#        Time
          0.5     0.0123506
            1     0.0123506
          1.5     0.0123506
            2     0.0123506
          2.5     0.0123506
            3     0.0123506
          3.5     0.0123506
            4     0.0123506
          4.5     0.0123506
            5     0.0123506
          5.5     0.0123506
            6     0.0123506
          6.5     0.0123506
            7     0.0123506
          7.5     0.0123506
            8     0.0123506
          8.5     0.0123506
            9     0.0123506
          9.5     0.0123506
           10     0.0123506
         10.5     0.0123506
           11     0.0123506
         11.5     0.0123506
           12     0.0123506
         12.5     0.0123506
           13     0.0123506
         13.5     0.0123506
           14     0.0123506
         14.5     0.0123506
           15     0.0123506
         15.5     0.0123506
           16     0.0123506
         16.5     0.0123506
           17     0.0123506
         17.5     0.0123506
           18     0.0123506
         18.5     0.0123506
           19     0.0123506
         19.5     0.0123506
           20     0.0123506
         20.5     0.0123506
           21     0.0123506
         21.5     0.0123506
           22     0.0123506
         22.5     0.0123506
           23     0.0123506
         23.5     0.0123506
           24     0.0123506
         24.5     0.0123506
           25     0.0123506
         25.5     0.0123506
           26     0.0123506
         26.5     0.0123506
           27     0.0123506
         27.5     0.0123506
           28     0.0123506
         28.5     0.0123506
           29     0.0123506
         29.5     0.0123506
           30     0.0123506
         30.5     0.0123506
           31     0.0123506
         31.5     0.0123506
           32     0.0123506
         32.5     0.0123506
           33     0.0123506
         33.5     0.0123506
           34     0.0123506
         34.5     0.0123506
           35     0.0123506
         35.5     0.0123506
           36     0.0123506
         36.5     0.0123506
           37     0.0123506
         37.5     0.0123506
           38     0.0123506
         38.5     0.0123506
           39     0.0123506
         39.5     0.0123506
           40     0.0123506
         40.5     0.0123506
           41     0.0123506
         41.5     0.0123506
           42     0.0123506
         42.5     0.0123506
           43     0.0123506
         43.5     0.0123506
           44     0.0123506
         44.5     0.0123506
           45     0.0123506
         45.5     0.0123506
           46     0.0123506
         46.5     0.0123506
           47     0.0123506
         47.5     0.0123506
           48     0.0123506
         48.5     0.0123506
           49     0.0123506
         49.5     0.0123506
           50     0.0123506
         50.5     0.0123506
           51     0.0123506
         51.5     0.0123506
           52     0.0123506
         52.5     0.0123506
           53     0.0123506
         53.5     0.0123506
           54     0.0123506
         54.5     0.0123506
           55     0.0123506
         55.5     0.0123506
           56     0.0123506
         56.5     0.0123506
           57     0.0123506
         57.5     0.0123506
           58     0.0123506
         58.5     0.0123506
           59     0.0123506
         59.5     0.0123506
           60     0.0123506
         60.5     0.0123506
           61     0.0123506
         61.5     0.0123506
           62     0.0123506
         62.5     0.0123506
           63     0.0123506
         63.5     0.0123506
           64     0.0123506
         64.5     0.0123506
           65     0.0123506
         65.5     0.0123506
           66     0.0123506
         66.5     0.0123506
           67     0.0123506
         67.5     0.0123506
           68     0.0123506
         68.5     0.0123506
           69     0.0123506
         69.5     0.0123506
           70     0.0123506
         70.5     0.0123506
           71     0.0123506
         71.5     0.0123506
           72     0.0123506
         72.5     0.0123506
           73     0.0123506
         73.5     0.0123506
           74     0.0123506
         74.5     0.0123506
           75     0.0123506
         75.5     0.0123506
           76     0.0123506
         76.5     0.0123506
           77     0.0123506
         77.5     0.0123506
           78     0.0123506
         78.5     0.0123506
           79     0.0123506
         79.5     0.0123506
           80     0.0123506
         80.5     0.0123506
           81     0.0123506
         81.5     0.0123506
           82     0.0123506
         82.5     0.0123506
           83     0.0123506
         83.5     0.0123506
           84     0.0123506
         84.5     0.0123506
           85     0.0123506
         85.5     0.0123506
           86     0.0123506
         86.5     0.0123506
           87     0.0123506
         87.5     0.0123506
           88     0.0123506
         88.5     0.0123506
           89     0.0123506
         89.5     0.0123506
           90     0.0123506
         90.5     0.0123506
           91     0.0123506
         91.5     0.0123506
           92     0.0123506
         92.5     0.0123506
           93     0.0123506
         93.5     0.0123506
           94     0.0123506
         94.5     0.0123506
           95     0.0123506
         95.5     0.0123506
           96     0.0123506
         96.5     0.0123506
           97     0.0123506
         97.5     0.0123506
           98     0.0123506
         98.5     0.0123506
           99     0.0123506
         99.5     0.0123506
          100     0.0123506
        100.5     0.0123506
          101     0.0123506
        101.5     0.0123506
          102     0.0123506
        102.5     0.0123506
          103     0.0123506
        103.5     0.0123506
          104     0.0123506
        104.5     0.0123506
          105     0.0123506
        105.5     0.0123506
          106     0.0123506
        106.5     0.0123506
          107     0.0123506
        107.5     0.0123506
          108     0.0123506
        108.5     0.0123506
          109     0.0123506
        109.5     0.0123506
          110     0.0123506
        110.5     0.0123506
          111     0.0123506
        111.5     0.0123506
          112     0.0123506
        112.5     0.0123506
          113     0.0123506
        113.5     0.0123506
          114     0.0123506
        114.5     0.0123506
          115     0.0123506
        115.5     0.0123506
          116     0.0123506
        116.5     0.0123506
          117     0.0123506
        117.5     0.0123506
          118     0.0123506
        118.5     0.0123506
          119     0.0123506
        119.5     0.0123506
          120     0.0123506
        120.5     0.0123506
          121     0.0123506
        121.5     0.0123506
          122     0.0123506
        122.5     0.0123506
          123     0.0123506
        123.5     0.0123506
          124     0.0123506
        124.5     0.0123506
          125     0.0123506
        125.5     0.0123506
          126     0.0123506
        126.5     0.0123506
          127     0.0123506
        127.5     0.0123506
          128     0.0123506
        128.5     0.0123506
          129     0.0123506
        129.5     0.0123506
          130     0.0123506
        130.5     0.0123506
          131     0.0123506
        131.5     0.0123506
          132     0.0123506
        132.5     0.0123506
          133     0.0123506
        133.5     0.0123506
          134     0.0123506
        134.5     0.0123506
          135     0.0123506
        135.5     0.0123506
          136     0.0123506
        136.5     0.0123506
          137     0.0123506
        137.5     0.0123506
          138     0.0123506
        138.5     0.0123506
          139     0.0123506
        139.5     0.0123506
          140     0.0123506
        140.5     0.0123506
          141     0.0123506
        141.5     0.0123506
          142     0.0123506
        142.5     0.0123506
          143     0.0123506
        143.5     0.0123506
          144     0.0123506
        144.5     0.0123506
          145     0.0123506
        145.5     0.0123506
          146     0.0123506
        146.5     0.0123506
          147     0.0123506
        147.5     0.0123506
          148     0.0123506
        148.5     0.0123506
          149     0.0123506
        149.5     0.0123506
          150     0.0123506
        150.5     0.0123506
          151     0.0123506
        151.5     0.0123506
          152     0.0123506
        152.5     0.0123506
          153     0.0123506
        153.5     0.0123506
          154     0.0123506
        154.5     0.0123506
          155     0.0123506
        155.5     0.0123506
          156     0.0123506
        156.5     0.0123506
          157     0.0123506
        157.5     0.0123506
          158     0.0123506
        158.5     0.0123506
          159     0.0123506
        159.5     0.0123506
          160     0.0123506
        160.5     0.0123506
          161     0.0123506
        161.5     0.0123506
          162     0.0123506
        162.5     0.0123506
          163     0.0123506
        163.5     0.0123506
          164     0.0123506
        164.5     0.0123506
          165     0.0123506
        165.5     0.0123506
          166     0.0123506
        166.5     0.0123506
          167     0.0123506
        167.5     0.0123506
          168     0.0123506
        168.5     0.0123506
          169     0.0123506
        169.5     0.0123506
          170     0.0123506
        170.5     0.0123506
          171     0.0123506
        171.5     0.0123506
          172     0.0123506
        172.5     0.0123506
          173     0.0123506
        173.5     0.0123506
          174     0.0123506
        174.5     0.0123506
          175     0.0123506
        175.5     0.0123506
          176     0.0123506
        176.5     0.0123506
          177     0.0123506
        177.5     0.0123506
          178     0.0123506
        178.5     0.0123506
          179     0.0123506
        179.5     0.0123506
          180     0.0123506
        180.5     0.0123506
          181     0.0123506
        181.5     0.0123506
          182     0.0123506
        182.5     0.0123506
          183     0.0123506
        183.5     0.0123506
          184     0.0123506
        184.5     0.0123506
          185     0.0123506
        185.5     0.0123506
          186     0.0123506
        186.5     0.0123506
          187     0.0123506
        187.5     0.0123506
          188     0.0123506
        188.5     0.0123506
          189     0.0123506
        189.5     0.0123506
          190     0.0123506
        190.5     0.0123506
          191     0.0123506
        191.5     0.0123506
          192     0.0123506
        192.5     0.0123506
          193     0.0123506
        193.5     0.0123506
          194     0.0123506
        194.5     0.0123506
          195     0.0123506
        195.5     0.0123506
          196     0.0123506
        196.5     0.0123506
          197     0.0123506
        197.5     0.0123506
          198     0.0123506
        198.5     0.0123506
          199     0.0123506
        199.5     0.0123506
          200     0.0123506
        200.5     0.0123506
          201     0.0123506
        201.5     0.0123506
          202     0.0123506
        202.5     0.0123506
          203     0.0123506
        203.5     0.0123506
          204     0.0123506
        204.5     0.0123506
          205     0.0123506
        205.5     0.0123506
          206     0.0123506
        206.5     0.0123506
          207     0.0123506
        207.5     0.0123506
          208     0.0123506
        208.5     0.0123506
          209     0.0123506
        209.5     0.0123506
          210     0.0123506
        210.5     0.0123506
          211     0.0123506
        211.5     0.0123506
          212     0.0123506
        212.5     0.0123506
          213     0.0123506
        213.5     0.0123506
          214     0.0123506
        214.5     0.0123506
          215     0.0123506
        215.5     0.0123506
          216     0.0123506
        216.5     0.0123506
          217     0.0123506
        217.5     0.0123506
          218     0.0123506
        218.5     0.0123506
          219     0.0123506
        219.5     0.0123506
          220     0.0123506
        220.5     0.0123506
          221     0.0123506
        221.5     0.0123506
          222     0.0123506
        222.5     0.0123506
          223     0.0123506
        223.5     0.0123506
          224     0.0123506
        224.5     0.0123506
          225     0.0123506
        225.5     0.0123506
          226     0.0123506
        226.5     0.0123506
          227     0.0123506
        227.5     0.0123506
          228     0.0123506
        228.5     0.0123506
          229     0.0123506
        229.5     0.0123506
          230     0.0123506
        230.5     0.0123506
          231     0.0123506
        231.5     0.0123506
          232     0.0123506
        232.5     0.0123506
          233     0.0123506
        233.5     0.0123506
          234     0.0123506
        234.5     0.0123506
          235     0.0123506
        235.5     0.0123506
          236     0.0123506
        236.5     0.0123506
          237     0.0123506
        237.5     0.0123506
          238     0.0123506
        238.5     0.0123506
          239     0.0123506
        239.5     0.0123506
          240     0.0123506
        240.5     0.0123506
          241     0.0123506
        241.5     0.0123506
          242     0.0123506
        242.5     0.0123506
          243     0.0123506
        243.5     0.0123506
          244     0.0123506
        244.5     0.0123506
          245     0.0123506
        245.5     0.0123506
          246     0.0123506
        246.5     0.0123506
          247     0.0123506
        247.5     0.0123506
          248     0.0123506
        248.5     0.0123506
          249     0.0123506
        249.5     0.0123506
          250     0.0123506
        250.5     0.0123506
          251     0.0123506
        251.5     0.0123506
          252     0.0123506
        252.5     0.0123506
          253     0.0123506
        253.5     0.0123506
          254     0.0123506
        254.5     0.0123506
          255     0.0123506
        255.5     0.0123506
          256     0.0123506
        256.5     0.0123506
          257     0.0123506
        257.5     0.0123506
          258     0.0123506
        258.5     0.0123506
          259     0.0123506
        259.5     0.0123506
          260     0.0123506
        260.5     0.0123506
          261     0.0123506
        261.5     0.0123506
          262     0.0123506
        262.5     0.0123506
          263     0.0123506
        263.5     0.0123506
          264     0.0123506
        264.5     0.0123506
          265     0.0123506
        265.5     0.0123506
          266     0.0123506
        266.5     0.0123506
          267     0.0123506
        267.5     0.0123506
          268     0.0123506
        268.5     0.0123506
          269     0.0123506
        269.5     0.0123506
          270     0.0123506
        270.5     0.0123506
          271     0.0123506
        271.5     0.0123506
          272     0.0123506
        272.5     0.0123506
          273     0.0123506
        273.5     0.0123506
          274     0.0123506
        274.5     0.0123506
          275     0.0123506
        275.5     0.0123506
          276     0.0123506
        276.5     0.0123506
          277     0.0123506
        277.5     0.0123506
          278     0.0123506
        278.5     0.0123506
          279     0.0123506
        279.5     0.0123506
          280     0.0123506
        280.5     0.0123506
          281     0.0123506
        281.5     0.0123506
          282     0.0123506
        282.5     0.0123506
          283     0.0123506
        283.5     0.0123506
          284     0.0123506
        284.5     0.0123506
          285     0.0123506
        285.5     0.0123506
          286     0.0123506
        286.5     0.0123506
          287     0.0123506
        287.5     0.0123506
          288     0.0123506
        288.5     0.0123506
          289     0.0123506
        289.5     0.0123506
          290     0.0123506
        290.5     0.0123506
          291     0.0123506
        291.5     0.0123506
          292     0.0123506
        292.5     0.0123506
          293     0.0123506
        293.5     0.0123506
          294     0.0123506
        294.5     0.0123506
          295     0.0123506
        295.5     0.0123506
          296     0.0123506
        296.5     0.0123506
          297     0.0123506
        297.5     0.0123506
          298     0.0123506
        298.5     0.0123506
          299     0.0123506
        299.5     0.0123506
          300     0.0123506
        300.5     0.0123506
          301     0.0123506
        301.5     0.0123506
          302     0.0123506
        302.5     0.0123506
          303     0.0123506
        303.5     0.0123506
          304     0.0123506
        304.5     0.0123506
          305     0.0123506
        305.5     0.0123506
          306     0.0123506
        306.5     0.0123506
          307     0.0123506
        307.5     0.0123506
          308     0.0123506
        308.5     0.0123506
          309     0.0123506
        309.5     0.0123506
          310     0.0123506
        310.5     0.0123506
          311     0.0123506
        311.5     0.0123506
          312     0.0123506
        312.5     0.0123506
          313     0.0123506
        313.5     0.0123506
          314     0.0123506
        314.5     0.0123506
          315     0.0123506
        315.5     0.0123506
          316     0.0123506
        316.5     0.0123506
          317     0.0123506
        317.5     0.0123506
          318     0.0123506
        318.5     0.0123506
          319     0.0123506
        319.5     0.0123506
          320     0.0123506
        320.5     0.0123506
          321     0.0123506
        321.5     0.0123506
          322     0.0123506
        322.5     0.0123506
          323     0.0123506
        323.5     0.0123506
          324     0.0123506
        324.5     0.0123506
          325     0.0123506
        325.5     0.0123506
          326     0.0123506
        326.5     0.0123506
          327     0.0123506
        327.5     0.0123506
          328     0.0123506
        328.5     0.0123506
          329     0.0123506
        329.5     0.0123506
          330     0.0123506
        330.5     0.0123506
          331     0.0123506
        331.5     0.0123506
          332     0.0123506
        332.5     0.0123506
          333     0.0123506
        333.5     0.0123506
          334     0.0123506
        334.5     0.0123506
          335     0.0123506
        335.5     0.0123506
          336     0.0123506
        336.5     0.0123506
          337     0.0123506
        337.5     0.0123506
          338     0.0123506
        338.5     0.0123506
          339     0.0123506
        339.5     0.0123506
          340     0.0123506
        340.5     0.0123506
          341     0.0123506
        341.5     0.0123506
          342     0.0123506
        342.5     0.0123506
          343     0.0123506
        343.5     0.0123506
          344     0.0123506
        344.5     0.0123506
          345     0.0123506
        345.5     0.0123506
          346     0.0123506
        346.5     0.0123506
          347     0.0123506
        347.5     0.0123506
          348     0.0123506
        348.5     0.0123506
          349     0.0123506
        349.5     0.0123506
          350     0.0123506
        350.5     0.0123506
          351     0.0123506
        351.5     0.0123506
          352     0.0123506
        352.5     0.0123506
          353     0.0123506
        353.5     0.0123506
          354     0.0123506
        354.5     0.0123506
          355     0.0123506
        355.5     0.0123506
          356     0.0123506
        356.5     0.0123506
          357     0.0123506
        357.5     0.0123506
          358     0.0123506
        358.5     0.0123506
          359     0.0123506
        359.5     0.0123506
          360     0.0123506
        360.5     0.0123506
          361     0.0123506
        361.5     0.0123506
          362     0.0123506
        362.5     0.0123506
          363     0.0123506
        363.5     0.0123506
          364     0.0123506
        364.5     0.0123506
          365     0.0123506
        365.5     0.0123506
          366     0.0123506
        366.5     0.0123506
          367     0.0123506
        367.5     0.0123506
          368     0.0123506
        368.5     0.0123506
          369     0.0123506
        369.5     0.0123506
          370     0.0123506
        370.5     0.0123506
          371     0.0123506
        371.5     0.0123506
          372     0.0123506
        372.5     0.0123506
          373     0.0123506
        373.5     0.0123506
          374     0.0123506
        374.5     0.0123506
          375     0.0123506
        375.5     0.0123506
          376     0.0123506
        376.5     0.0123506
          377     0.0123506
        377.5     0.0123506
          378     0.0123506
        378.5     0.0123506
          379     0.0123506
        379.5     0.0123506
          380     0.0123506
        380.5     0.0123506
          381     0.0123506
        381.5     0.0123506
          382     0.0123506
        382.5     0.0123506
          383     0.0123506
        383.5     0.0123506
          384     0.0123506
        384.5     0.0123506
          385     0.0123506
        385.5     0.0123506
          386     0.0123506
        386.5     0.0123506
          387     0.0123506
        387.5     0.0123506
          388     0.0123506
        388.5     0.0123506
          389     0.0123506
        389.5     0.0123506
          390     0.0123506
        390.5     0.0123506
          391     0.0123506
        391.5     0.0123506
          392     0.0123506
        392.5     0.0123506
          393     0.0123506
        393.5     0.0123506
          394     0.0123506
        394.5     0.0123506
          395     0.0123506
        395.5     0.0123506
          396     0.0123506
        396.5     0.0123506
          397     0.0123506
        397.5     0.0123506
          398     0.0123506
        398.5     0.0123506
          399     0.0123506
        399.5     0.0123506
          400     0.0123506
        400.5     0.0123506
          401     0.0123506
        401.5     0.0123506
          402     0.0123506
        402.5     0.0123506
          403     0.0123506
        403.5     0.0123506
          404     0.0123506
        404.5     0.0123506
          405     0.0123506
        405.5     0.0123506
          406     0.0123506
        406.5     0.0123506
          407     0.0123506
        407.5     0.0123506
          408     0.0123506
        408.5     0.0123506
          409     0.0123506
        409.5     0.0123506
          410     0.0123506
        410.5     0.0123506
          411     0.0123506
        411.5     0.0123506
          412     0.0123506
        412.5     0.0123506
          413     0.0123506
        413.5     0.0123506
          414     0.0123506
        414.5     0.0123506
          415     0.0123506
        415.5     0.0123506
          416     0.0123506
        416.5     0.0123506
          417     0.0123506
        417.5     0.0123506
          418     0.0123506
        418.5     0.0123506
          419     0.0123506
        419.5     0.0123506
          420     0.0123506
        420.5     0.0123506
          421     0.0123506
        421.5     0.0123506
          422     0.0123506
        422.5     0.0123506
          423     0.0123506
        423.5     0.0123506
          424     0.0123506
        424.5     0.0123506
          425     0.0123506
        425.5     0.0123506
          426     0.0123506
        426.5     0.0123506
          427     0.0123506
        427.5     0.0123506
          428     0.0123506
        428.5     0.0123506
          429     0.0123506
        429.5     0.0123506
          430     0.0123506
        430.5     0.0123506
          431     0.0123506
        431.5     0.0123506
          432     0.0123506
        432.5     0.0123506
          433     0.0123506
        433.5     0.0123506
          434     0.0123506
        434.5     0.0123506
          435     0.0123506
        435.5     0.0123506
          436     0.0123506
        436.5     0.0123506
          437     0.0123506
        437.5     0.0123506
          438     0.0123506
        438.5     0.0123506
          439     0.0123506
        439.5     0.0123506
          440     0.0123506
        440.5     0.0123506
          441     0.0123506
        441.5     0.0123506
          442     0.0123506
        442.5     0.0123506
          443     0.0123506
        443.5     0.0123506
          444     0.0123506
        444.5     0.0123506
          445     0.0123506
        445.5     0.0123506
          446     0.0123506
        446.5     0.0123506
          447     0.0123506
        447.5     0.0123505
          448     0.0123505
        448.5     0.0123505
          449     0.0123505
        449.5     0.0123505
          450     0.0123505
        450.5     0.0123505
          451     0.0123505
        451.5     0.0123505
          452     0.0123505
        452.5     0.0123505
          453     0.0123505
        453.5     0.0123505
          454     0.0123505
        454.5     0.0123505
          455     0.0123505
        455.5     0.0123505
          456     0.0123505
        456.5     0.0123505
          457     0.0123505
        457.5     0.0123505
          458     0.0123505
        458.5     0.0123505
          459     0.0123505
        459.5     0.0123505
          460     0.0123505
        460.5     0.0123505
          461     0.0123505
        461.5     0.0123505
          462     0.0123505
        462.5     0.0123505
          463     0.0123505
        463.5     0.0123505
          464     0.0123505
        464.5     0.0123505
          465     0.0123505
        465.5     0.0123505
          466     0.0123505
        466.5     0.0123505
          467     0.0123505
        467.5     0.0123505
          468     0.0123505
        468.5     0.0123505
          469     0.0123505
        469.5     0.0123505
          470     0.0123505
        470.5     0.0123505
          471     0.0123505
        471.5     0.0123505
          472     0.0123505
        472.5     0.0123505
          473     0.0123505
        473.5     0.0123505
          474     0.0123505
        474.5     0.0123505
          475     0.0123505
        475.5     0.0123505
          476     0.0123505
        476.5     0.0123505
          477     0.0123505
        477.5     0.0123505
          478     0.0123505
        478.5     0.0123505
          479     0.0123505
        479.5     0.0123505
          480     0.0123505
        480.5     0.0123505
          481     0.0123505
        481.5     0.0123505
          482     0.0123505
        482.5     0.0123505
          483     0.0123505
        483.5     0.0123505
          484     0.0123505
        484.5     0.0123505
          485     0.0123505
        485.5     0.0123505
          486     0.0123505
        486.5     0.0123505
          487     0.0123505
        487.5     0.0123505
          488     0.0123505
        488.5     0.0123505
          489     0.0123505
        489.5     0.0123505
          490     0.0123505
        490.5     0.0123505
          491     0.0123505
        491.5     0.0123505
          492     0.0123505
        492.5     0.0123505
          493     0.0123505
        493.5     0.0123505
          494     0.0123505
        494.5     0.0123505
          495     0.0123505
        495.5     0.0123505
          496     0.0123505
        496.5     0.0123505
          497     0.0123505
        497.5     0.0123505
          498     0.0123505
        498.5     0.0123505
          499     0.0123505
        499.5     0.0123505
          500     0.0123505
        500.5     0.0123505
          501     0.0123505
        501.5     0.0123505
          502     0.0123505
        502.5     0.0123505
          503     0.0123505
        503.5     0.0123505
          504     0.0123505
        504.5     0.0123505
          505     0.0123505
        505.5     0.0123505
          506     0.0123505
        506.5     0.0123505
          507     0.0123505
        507.5     0.0123505
          508     0.0123505
        508.5     0.0123505
          509     0.0123505
        509.5     0.0123505
          510     0.0123505
        510.5     0.0123505
          511     0.0123505
        511.5     0.0123505
          512     0.0123505
        512.5     0.0123505
          513     0.0123505
        513.5     0.0123505
          514     0.0123505
        514.5     0.0123505
          515     0.0123505
        515.5     0.0123505
          516     0.0123505
        516.5     0.0123505
          517     0.0123505
        517.5     0.0123505
          518     0.0123505
        518.5     0.0123505
          519     0.0123505
        519.5     0.0123505
          520     0.0123505
        520.5     0.0123505
          521     0.0123505
        521.5     0.0123505
          522     0.0123505
        522.5     0.0123505
          523     0.0123505
        523.5     0.0123505
          524     0.0123505
        524.5     0.0123505
          525     0.0123505
        525.5     0.0123505
          526     0.0123505
        526.5     0.0123505
          527     0.0123505
        527.5     0.0123505
          528     0.0123505
        528.5     0.0123505
          529     0.0123505
        529.5     0.0123505
          530     0.0123505
        530.5     0.0123505
          531     0.0123505
        531.5     0.0123505
          532     0.0123505
        532.5     0.0123505
          533     0.0123505
        533.5     0.0123505
          534     0.0123505