# Probe 0 (0.05 0.05 0.005)
#       Probe             0
#        Time
          0.5          0.04
            1          0.04
          1.5          0.04
            2          0.04
          2.5          0.04
            3          0.04
          3.5          0.04
            4          0.04
          4.5          0.04
            5          0.04
          5.5          0.04
            6          0.04
          6.5          0.04
            7          0.04
          7.5          0.04
            8          0.04
          8.5          0.04
            9          0.04
          9.5          0.04
           10          0.04
         10.5          0.04
           11          0.04
         11.5          0.04
           12          0.04
         12.5          0.04
           13          0.04
         13.5          0.04
           14          0.04
         14.5          0.04
           15          0.04
         15.5          0.04
           16          0.04
         16.5          0.04
           17          0.04
         17.5          0.04
           18          0.04
         18.5          0.04
           19          0.04
         19.5          0.04
           20          0.04
         20.5          0.04
           21          0.04
         21.5          0.04
           22          0.04
         22.5          0.04
           23          0.04
         23.5          0.04
           24          0.04
         24.5          0.04
           25          0.04
         25.5          0.04
           26          0.04
         26.5          0.04
           27          0.04
         27.5          0.04
           28          0.04
         28.5          0.04
           29          0.04
         29.5          0.04
           30          0.04
         30.5          0.04
           31          0.04
         31.5          0.04
           32          0.04
         32.5          0.04
           33          0.04
         33.5          0.04
           34          0.04
         34.5          0.04
           35          0.04
         35.5          0.04
           36          0.04
         36.5          0.04
           37          0.04
         37.5          0.04
           38          0.04
         38.5          0.04
           39          0.04
         39.5          0.04
           40          0.04
         40.5          0.04
           41          0.04
         41.5          0.04
           42          0.04
         42.5          0.04
           43          0.04
         43.5          0.04
           44          0.04
         44.5          0.04
           45          0.04
         45.5          0.04
           46          0.04
         46.5          0.04
           47          0.04
         47.5          0.04
           48          0.04
         48.5          0.04
           49          0.04
         49.5          0.04
           50          0.04
         50.5          0.04
           51          0.04
         51.5          0.04
           52          0.04
         52.5          0.04
           53          0.04
         53.5          0.04
           54          0.04
         54.5          0.04
           55          0.04
         55.5          0.04
           56          0.04
         56.5          0.04
           57          0.04
         57.5          0.04
           58          0.04
         58.5          0.04
           59          0.04
         59.5          0.04
           60          0.04
         60.5          0.04
           61          0.04
         61.5          0.04
           62          0.04
         62.5          0.04
           63          0.04
         63.5          0.04
           64          0.04
         64.5          0.04
           65          0.04
         65.5          0.04
           66          0.04
         66.5          0.04
           67          0.04
         67.5          0.04
           68          0.04
         68.5          0.04
           69          0.04
         69.5          0.04
           70          0.04
         70.5          0.04
           71          0.04
         71.5          0.04
           72          0.04
         72.5          0.04
           73          0.04
         73.5          0.04
           74          0.04
         74.5          0.04
           75          0.04
         75.5          0.04
           76          0.04
         76.5          0.04
           77          0.04
         77.5          0.04
           78          0.04
         78.5          0.04
           79          0.04
         79.5          0.04
           80          0.04
         80.5          0.04
           81          0.04
         81.5          0.04
           82          0.04
         82.5          0.04
           83          0.04
         83.5          0.04
           84          0.04
         84.5          0.04
           85          0.04
         85.5          0.04
           86          0.04
         86.5          0.04
           87          0.04
         87.5          0.04
           88          0.04
         88.5          0.04
           89          0.04
         89.5          0.04
           90          0.04
         90.5          0.04
           91          0.04
         91.5          0.04
           92          0.04
         92.5          0.04
           93          0.04
         93.5          0.04
           94          0.04
         94.5          0.04
           95          0.04
         95.5          0.04
           96          0.04
         96.5          0.04
           97          0.04
         97.5          0.04
           98          0.04
         98.5          0.04
           99          0.04
         99.5          0.04
          100          0.04
        100.5          0.04
          101          0.04
        101.5          0.04
          102          0.04
        102.5          0.04
          103          0.04
        103.5          0.04
          104          0.04
        104.5          0.04
          105          0.04
        105.5          0.04
          106          0.04
        106.5          0.04
          107          0.04
        107.5          0.04
          108          0.04
        108.5          0.04
          109          0.04
        109.5          0.04
          110          0.04
        110.5          0.04
          111          0.04
        111.5          0.04
          112          0.04
        112.5          0.04
          113          0.04
        113.5          0.04
          114          0.04
        114.5          0.04
          115          0.04
        115.5          0.04
          116          0.04
        116.5          0.04
          117          0.04
        117.5          0.04
          118          0.04
        118.5          0.04
          119          0.04
        119.5          0.04
          120          0.04
        120.5          0.04
          121          0.04
        121.5          0.04
          122          0.04
        122.5          0.04
          123          0.04
        123.5          0.04
          124          0.04
        124.5          0.04
          125          0.04
        125.5          0.04
          126          0.04
        126.5          0.04
          127          0.04
        127.5          0.04
          128          0.04
        128.5          0.04
          129          0.04
        129.5          0.04
          130          0.04
        130.5          0.04
          131          0.04
        131.5          0.04
          132          0.04
        132.5          0.04
          133          0.04
        133.5          0.04
          134          0.04
        134.5          0.04
          135          0.04
        135.5          0.04
          136          0.04
        136.5          0.04
          137          0.04
        137.5          0.04
          138          0.04
        138.5          0.04
          139          0.04
        139.5          0.04
          140          0.04
        140.5          0.04
          141          0.04
        141.5          0.04
          142          0.04
        142.5          0.04
          143          0.04
        143.5          0.04
          144          0.04
        144.5          0.04
          145          0.04
        145.5          0.04
          146          0.04
        146.5          0.04
          147          0.04
        147.5          0.04
          148          0.04
        148.5          0.04
          149          0.04
        149.5          0.04
          150          0.04
        150.5          0.04
          151          0.04
        151.5          0.04
          152          0.04
        152.5          0.04
          153          0.04
        153.5          0.04
          154          0.04
        154.5          0.04
          155          0.04
        155.5          0.04
          156          0.04
        156.5          0.04
          157          0.04
        157.5          0.04
          158          0.04
        158.5          0.04
          159          0.04
        159.5          0.04
          160          0.04
        160.5          0.04
          161          0.04
        161.5          0.04
          162          0.04
        162.5          0.04
          163          0.04
        163.5          0.04
          164          0.04
        164.5          0.04
          165          0.04
        165.5          0.04
          166          0.04
        166.5          0.04
          167          0.04
        167.5          0.04
          168          0.04
        168.5          0.04
          169          0.04
        169.5          0.04
          170          0.04
        170.5          0.04
          171          0.04
        171.5          0.04
          172          0.04
        172.5          0.04
          173          0.04
        173.5          0.04
          174          0.04
        174.5          0.04
          175          0.04
        175.5          0.04
          176          0.04
        176.5          0.04
          177          0.04
        177.5          0.04
          178          0.04
        178.5          0.04
          179          0.04
        179.5          0.04
          180          0.04
        180.5          0.04
          181          0.04
        181.5          0.04
          182          0.04
        182.5          0.04
          183          0.04
        183.5          0.04
          184          0.04
        184.5          0.04
          185          0.04
        185.5          0.04
          186          0.04
        186.5          0.04
          187          0.04
        187.5          0.04
          188          0.04
        188.5          0.04
          189          0.04
        189.5          0.04
          190          0.04
        190.5          0.04
          191          0.04
        191.5          0.04
          192          0.04
        192.5          0.04
          193          0.04
        193.5          0.04
          194          0.04
        194.5          0.04
          195          0.04
        195.5          0.04
          196          0.04
        196.5          0.04
          197          0.04
        197.5          0.04
          198          0.04
        198.5          0.04
          199          0.04
        199.5          0.04
          200          0.04
        200.5          0.04
          201          0.04
        201.5          0.04
          202          0.04
        202.5          0.04
          203          0.04
        203.5          0.04
          204          0.04
        204.5          0.04
          205          0.04
        205.5          0.04
          206          0.04
        206.5          0.04
          207          0.04
        207.5          0.04
          208          0.04
        208.5          0.04
          209          0.04
        209.5          0.04
          210          0.04
        210.5          0.04
          211          0.04
        211.5          0.04
          212          0.04
        212.5          0.04
          213          0.04
        213.5          0.04
          214          0.04
        214.5          0.04
          215          0.04
        215.5          0.04
          216          0.04
        216.5          0.04
          217          0.04
        217.5          0.04
          218          0.04
        218.5          0.04
          219          0.04
        219.5          0.04
          220          0.04
        220.5          0.04
          221          0.04
        221.5          0.04
          222          0.04
        222.5          0.04
          223          0.04
        223.5          0.04
          224          0.04
        224.5          0.04
          225          0.04
        225.5          0.04
          226          0.04
        226.5          0.04
          227          0.04
        227.5          0.04
          228          0.04
        228.5          0.04
          229          0.04
        229.5          0.04
          230          0.04
        230.5          0.04
          231          0.04
        231.5          0.04
          232          0.04
        232.5          0.04
          233          0.04
        233.5          0.04
          234          0.04
        234.5          0.04
          235          0.04
        235.5          0.04
          236          0.04
        236.5          0.04
          237          0.04
        237.5          0.04
          238          0.04
        238.5          0.04
          239          0.04
        239.5          0.04
          240          0.04
        240.5          0.04
          241          0.04
        241.5          0.04
          242          0.04
        242.5          0.04
          243          0.04
        243.5          0.04
          244          0.04
        244.5          0.04
          245          0.04
        245.5          0.04
          246          0.04
        246.5          0.04
          247          0.04
        247.5          0.04
          248          0.04
        248.5          0.04
          249          0.04
        249.5          0.04
          250          0.04
        250.5          0.04
          251          0.04
        251.5          0.04
          252          0.04
        252.5          0.04
          253          0.04
        253.5          0.04
          254          0.04
        254.5          0.04
          255          0.04
        255.5          0.04
          256          0.04
        256.5          0.04
          257          0.04
        257.5          0.04
          258          0.04
        258.5          0.04
          259          0.04
        259.5          0.04
          260          0.04
        260.5          0.04
          261          0.04
        261.5          0.04
          262          0.04
        262.5          0.04
          263          0.04
        263.5          0.04
          264          0.04
        264.5          0.04
          265          0.04
        265.5          0.04
          266          0.04
        266.5          0.04
          267          0.04
        267.5          0.04
          268          0.04
        268.5          0.04
          269          0.04
        269.5          0.04
          270          0.04
        270.5          0.04
          271          0.04
        271.5          0.04
          272          0.04
        272.5          0.04
          273          0.04
        273.5          0.04
          274          0.04
        274.5          0.04
          275          0.04
        275.5          0.04
          276          0.04
        276.5          0.04
          277          0.04
        277.5          0.04
          278          0.04
        278.5          0.04
          279          0.04
        279.5          0.04
          280          0.04
        280.5          0.04
          281          0.04
        281.5          0.04
          282          0.04
        282.5          0.04
          283          0.04
        283.5          0.04
          284          0.04
        284.5          0.04
          285          0.04
        285.5          0.04
          286          0.04
        286.5          0.04
          287          0.04
        287.5          0.04
          288          0.04
        288.5          0.04
          289          0.04
        289.5          0.04
          290          0.04
        290.5          0.04
          291          0.04
        291.5          0.04
          292          0.04
        292.5          0.04
          293          0.04
        293.5          0.04
          294          0.04
        294.5          0.04
          295          0.04
        295.5          0.04
          296          0.04
        296.5          0.04
          297          0.04
        297.5          0.04
          298          0.04
        298.5          0.04
          299          0.04
        299.5          0.04
          300          0.04
        300.5          0.04
          301          0.04
        301.5          0.04
          302          0.04
        302.5          0.04
          303          0.04
        303.5          0.04
          304          0.04
        304.5          0.04
          305          0.04
        305.5          0.04
          306          0.04
        306.5          0.04
          307          0.04
        307.5          0.04
          308          0.04
        308.5          0.04
          309          0.04
        309.5          0.04
          310          0.04
        310.5          0.04
          311          0.04
        311.5          0.04
          312          0.04
        312.5          0.04
          313          0.04
        313.5          0.04
          314          0.04
        314.5          0.04
          315          0.04
        315.5          0.04
          316          0.04
        316.5          0.04
          317          0.04
        317.5          0.04
          318          0.04
        318.5          0.04
          319          0.04
        319.5          0.04
          320          0.04
        320.5          0.04
          321          0.04
        321.5          0.04
          322          0.04
        322.5          0.04
          323          0.04
        323.5          0.04
          324          0.04
        324.5          0.04
          325          0.04
        325.5          0.04
          326          0.04
        326.5          0.04
          327          0.04
        327.5          0.04
          328          0.04
        328.5          0.04
          329          0.04
        329.5          0.04
          330          0.04
        330.5          0.04
          331          0.04
        331.5          0.04
          332          0.04
        332.5          0.04
          333          0.04
        333.5          0.04
          334          0.04
        334.5          0.04
          335          0.04
        335.5          0.04
          336          0.04
        336.5          0.04
          337          0.04
        337.5          0.04
          338          0.04
        338.5          0.04
          339          0.04
        339.5          0.04
          340          0.04
        340.5          0.04
          341          0.04
        341.5          0.04
          342          0.04
        342.5          0.04
          343          0.04
        343.5          0.04
          344          0.04
        344.5          0.04
          345          0.04
        345.5          0.04
          346          0.04
        346.5          0.04
          347          0.04
        347.5          0.04
          348          0.04
        348.5          0.04
          349          0.04
        349.5          0.04
          350          0.04
        350.5          0.04
          351          0.04
        351.5          0.04
          352          0.04
        352.5          0.04
          353          0.04
        353.5          0.04
          354          0.04
        354.5          0.04
          355          0.04
        355.5          0.04
          356          0.04
        356.5          0.04
          357          0.04
        357.5          0.04
          358          0.04
        358.5          0.04
          359          0.04
        359.5          0.04
          360          0.04
        360.5          0.04
          361          0.04
        361.5          0.04
          362          0.04
        362.5          0.04
          363          0.04
        363.5          0.04
          364          0.04
        364.5          0.04
          365          0.04
        365.5          0.04
          366          0.04
        366.5          0.04
          367          0.04
        367.5          0.04
          368          0.04
        368.5          0.04
          369          0.04
        369.5          0.04
          370          0.04
        370.5          0.04
          371          0.04
        371.5          0.04
          372          0.04
        372.5          0.04
          373          0.04
        373.5          0.04
          374          0.04
        374.5          0.04
          375          0.04
        375.5          0.04
          376          0.04
        376.5          0.04
          377          0.04
        377.5          0.04
          378          0.04
        378.5          0.04
          379          0.04
        379.5          0.04
          380          0.04
        380.5          0.04
          381          0.04
        381.5          0.04
          382          0.04
        382.5          0.04
          383          0.04
        383.5          0.04
          384          0.04
        384.5          0.04
          385          0.04
        385.5          0.04
          386          0.04
        386.5          0.04
          387          0.04
        387.5          0.04
          388          0.04
        388.5          0.04
          389          0.04
        389.5          0.04
          390          0.04
        390.5          0.04
          391          0.04
        391.5          0.04
          392          0.04
        392.5          0.04
          393          0.04
        393.5          0.04
          394          0.04
        394.5          0.04
          395          0.04
        395.5          0.04
          396          0.04
        396.5          0.04
          397          0.04
        397.5          0.04
          398          0.04
        398.5          0.04
          399          0.04
        399.5          0.04
          400          0.04
        400.5          0.04
          401          0.04
        401.5          0.04
          402          0.04
        402.5          0.04
          403          0.04
        403.5          0.04
          404          0.04
        404.5          0.04
          405          0.04
        405.5          0.04
          406          0.04
        406.5          0.04
          407          0.04
        407.5          0.04
          408          0.04
        408.5          0.04
          409          0.04
        409.5          0.04
          410          0.04
        410.5          0.04
          411          0.04
        411.5          0.04
          412          0.04
        412.5          0.04
          413          0.04
        413.5          0.04
          414          0.04
        414.5          0.04
          415          0.04
        415.5          0.04
          416          0.04
        416.5          0.04
          417          0.04
        417.5          0.04
          418          0.04
        418.5          0.04
          419          0.04
        419.5          0.04
          420          0.04
        420.5          0.04
          421          0.04
        421.5          0.04
          422          0.04
        422.5          0.04
          423          0.04
        423.5          0.04
          424          0.04
        424.5          0.04
          425          0.04
        425.5          0.04
          426          0.04
        426.5          0.04
          427          0.04
        427.5          0.04
          428          0.04
        428.5          0.04
          429          0.04
        429.5          0.04
          430          0.04
        430.5          0.04
          431          0.04
        431.5          0.04
          432          0.04
        432.5          0.04
          433          0.04
        433.5          0.04
          434          0.04
        434.5          0.04
          435          0.04
        435.5          0.04
          436          0.04
        436.5          0.04
          437          0.04
        437.5          0.04
          438          0.04
        438.5          0.04
          439          0.04
        439.5          0.04
          440          0.04
        440.5          0.04
          441          0.04
        441.5          0.04
          442          0.04
        442.5          0.04
          443          0.04
        443.5          0.04
          444          0.04
        444.5          0.04
          445          0.04
        445.5          0.04
          446          0.04
        446.5          0.04
          447          0.04
        447.5          0.04
          448          0.04
        448.5          0.04
          449          0.04
        449.5          0.04
          450          0.04
        450.5          0.04
          451          0.04
        451.5          0.04
          452          0.04
        452.5          0.04
          453          0.04
        453.5          0.04
          454          0.04
        454.5          0.04
          455          0.04
        455.5          0.04
          456          0.04
        456.5          0.04
          457          0.04
        457.5          0.04
          458          0.04
        458.5          0.04
          459          0.04
        459.5          0.04
          460          0.04
        460.5          0.04
          461          0.04
        461.5          0.04
          462          0.04
        462.5          0.04
          463          0.04
        463.5          0.04
          464          0.04
        464.5          0.04
          465          0.04
        465.5          0.04
          466          0.04
        466.5          0.04
          467          0.04
        467.5          0.04
          468          0.04
        468.5          0.04
          469          0.04
        469.5          0.04
          470          0.04
        470.5          0.04
          471          0.04
        471.5          0.04
          472          0.04
        472.5          0.04
          473          0.04
        473.5          0.04
          474          0.04
        474.5          0.04
          475          0.04
        475.5          0.04
          476          0.04
        476.5          0.04
          477          0.04
        477.5          0.04
          478          0.04
        478.5          0.04
          479          0.04
        479.5          0.04
          480          0.04
        480.5          0.04
          481          0.04
        481.5          0.04
          482          0.04
        482.5          0.04
          483          0.04
        483.5          0.04
          484          0.04
        484.5          0.04
          485          0.04
        485.5          0.04
          486          0.04
        486.5          0.04
          487          0.04
        487.5          0.04
          488          0.04
        488.5          0.04
          489          0.04
        489.5          0.04
          490          0.04
        490.5          0.04
          491          0.04
        491.5          0.04
          492          0.04
        492.5          0.04
          493          0.04
        493.5          0.04
          494          0.04
        494.5          0.04
          495          0.04
        495.5          0.04
          496          0.04
        496.5          0.04
          497          0.04
        497.5          0.04
          498          0.04
        498.5          0.04
          499          0.04
        499.5          0.04
          500          0.04
        500.5          0.04
          501          0.04
        501.5          0.04
          502          0.04
        502.5          0.04
          503          0.04
        503.5          0.04
          504          0.04
        504.5          0.04
          505          0.04
        505.5          0.04
          506          0.04
        506.5          0.04
          507          0.04
        507.5          0.04
          508          0.04
        508.5          0.04
          509          0.04
        509.5          0.04
          510          0.04
        510.5          0.04
          511          0.04
        511.5          0.04
          512          0.04
        512.5          0.04
          513          0.04
        513.5          0.04
          514          0.04
        514.5          0.04
          515          0.04
        515.5          0.04
          516          0.04
        516.5          0.04
          517          0.04
        517.5          0.04
          518          0.04
        518.5          0.04
          519          0.04
        519.5          0.04
          520          0.04
        520.5          0.04
          521          0.04
        521.5          0.04
          522          0.04
        522.5          0.04
          523          0.04
        523.5          0.04
          524          0.04
        524.5          0.04
          525          0.04
        525.5          0.04
          526          0.04
        526.5          0.04
          527          0.04
        527.5          0.04
          528          0.04
        528.5          0.04
          529          0.04
        529.5          0.04
          530          0.04
        530.5          0.04
          531          0.04
        531.5          0.04
          532          0.04
        532.5          0.04
          533          0.04
        533.5          0.04
          534          0.04