# Probe 0 (0.05 0.05 0.005)
#       Probe             0
#        Time
          0.5   1.55637e+10
            1   1.55637e+10
          1.5   1.55637e+10
            2   1.55637e+10
          2.5   1.55637e+10
            3   1.55637e+10
          3.5   1.55637e+10
            4   1.55637e+10
          4.5   1.55637e+10
            5   1.55637e+10
          5.5   1.55637e+10
            6   1.55637e+10
          6.5   1.55637e+10
            7   1.55637e+10
          7.5   1.55637e+10
            8   1.55637e+10
          8.5   1.55637e+10
            9   1.55637e+10
          9.5   1.55637e+10
           10   1.55637e+10
         10.5   1.55637e+10
           11   1.55637e+10
         11.5   1.55637e+10
           12   1.55637e+10
         12.5   1.55637e+10
           13   1.55637e+10
         13.5   1.55637e+10
           14   1.55637e+10
         14.5   1.55637e+10
           15   1.55637e+10
         15.5   1.55637e+10
           16   1.55637e+10
         16.5   1.55637e+10
           17   1.55637e+10
         17.5   1.55637e+10
           18   1.55637e+10
         18.5   1.55637e+10
           19   1.55637e+10
         19.5   1.55637e+10
           20   1.55637e+10
         20.5   1.55637e+10
           21   1.55637e+10
         21.5   1.55637e+10
           22   1.55637e+10
         22.5   1.55637e+10
           23   1.55637e+10
         23.5   1.55637e+10
           24   1.55637e+10
         24.5   1.55637e+10
           25   1.55637e+10
         25.5   1.55637e+10
           26   1.55637e+10
         26.5   1.55637e+10
           27   1.55637e+10
         27.5   1.55637e+10
           28   1.55637e+10
         28.5   1.55637e+10
           29   1.55637e+10
         29.5   1.55637e+10
           30   1.55637e+10
         30.5   1.55637e+10
           31   1.55637e+10
         31.5   1.55637e+10
           32   1.55637e+10
         32.5   1.55637e+10
           33   1.55637e+10
         33.5   1.55637e+10
           34   1.55637e+10
         34.5   1.55637e+10
           35   1.55637e+10
         35.5   1.55637e+10
           36   1.55637e+10
         36.5   1.55637e+10
           37   1.55637e+10
         37.5   1.55637e+10
           38   1.55637e+10
         38.5   1.55637e+10
           39   1.55637e+10
         39.5   1.55637e+10
           40   1.55637e+10
         40.5   1.55637e+10
           41   1.55637e+10
         41.5   1.55637e+10
           42   1.55637e+10
         42.5   1.55637e+10
           43   1.55637e+10
         43.5   1.55637e+10
           44   1.55637e+10
         44.5   1.55637e+10
           45   1.55637e+10
         45.5   1.55637e+10
           46   1.55637e+10
         46.5   1.55637e+10
           47   1.55637e+10
         47.5   1.55637e+10
           48   1.55637e+10
         48.5   1.55637e+10
           49   1.55637e+10
         49.5   1.55637e+10
           50   1.55637e+10
         50.5   1.55637e+10
           51   1.55637e+10
         51.5   1.55637e+10
           52   1.55637e+10
         52.5   1.55637e+10
           53   1.55637e+10
         53.5   1.55637e+10
           54   1.55637e+10
         54.5   1.55637e+10
           55   1.55637e+10
         55.5   1.55637e+10
           56   1.55637e+10
         56.5   1.55637e+10
           57   1.55637e+10
         57.5   1.55637e+10
           58   1.55637e+10
         58.5   1.55637e+10
           59   1.55637e+10
         59.5   1.55637e+10
           60   1.55637e+10
         60.5   1.55637e+10
           61   1.55637e+10
         61.5   1.55637e+10
           62   1.55637e+10
         62.5   1.55637e+10
           63   1.55637e+10
         63.5   1.55637e+10
           64   1.55637e+10
         64.5   1.55637e+10
           65   1.55637e+10
         65.5   1.55637e+10
           66   1.55637e+10
         66.5   1.55637e+10
           67   1.55637e+10
         67.5   1.55637e+10
           68   1.55637e+10
         68.5   1.55637e+10
           69   1.55637e+10
         69.5   1.55637e+10
           70   1.55637e+10
         70.5   1.55637e+10
           71   1.55637e+10
         71.5   1.55637e+10
           72   1.55637e+10
         72.5   1.55637e+10
           73   1.55637e+10
         73.5   1.55637e+10
           74   1.55637e+10
         74.5   1.55637e+10
           75   1.55637e+10
         75.5   1.55637e+10
           76   1.55637e+10
         76.5   1.55637e+10
           77   1.55637e+10
         77.5   1.55637e+10
           78   1.55637e+10
         78.5   1.55637e+10
           79   1.55637e+10
         79.5   1.55637e+10
           80   1.55637e+10
         80.5   1.55637e+10
           81   1.55637e+10
         81.5   1.55637e+10
           82   1.55637e+10
         82.5   1.55637e+10
           83   1.55637e+10
         83.5   1.55637e+10
           84   1.55637e+10
         84.5   1.55637e+10
           85   1.55637e+10
         85.5   1.55637e+10
           86   1.55637e+10
         86.5   1.55637e+10
           87   1.55637e+10
         87.5   1.55637e+10
           88   1.55637e+10
         88.5   1.55637e+10
           89   1.55637e+10
         89.5   1.55637e+10
           90   1.55637e+10
         90.5   1.55637e+10
           91   1.55637e+10
         91.5   1.55637e+10
           92   1.55637e+10
         92.5   1.55637e+10
           93   1.55637e+10
         93.5   1.55637e+10
           94   1.55637e+10
         94.5   1.55637e+10
           95   1.55637e+10
         95.5   1.55637e+10
           96   1.55637e+10
         96.5   1.55637e+10
           97   1.55637e+10
         97.5   1.55637e+10
           98   1.55637e+10
         98.5   1.55637e+10
           99   1.55637e+10
         99.5   1.55637e+10
          100   1.55637e+10
        100.5   1.55637e+10
          101   1.55637e+10
        101.5   1.55637e+10
          102   1.55637e+10
        102.5   1.55637e+10
          103   1.55637e+10
        103.5   1.55637e+10
          104   1.55637e+10
        104.5   1.55637e+10
          105   1.55637e+10
        105.5   1.55637e+10
          106   1.55637e+10
        106.5   1.55637e+10
          107   1.55637e+10
        107.5   1.55637e+10
          108   1.55637e+10
        108.5   1.55637e+10
          109   1.55637e+10
        109.5   1.55637e+10
          110   1.55637e+10
        110.5   1.55637e+10
          111   1.55637e+10
        111.5   1.55637e+10
          112   1.55637e+10
        112.5   1.55637e+10
          113   1.55637e+10
        113.5   1.55637e+10
          114   1.55637e+10
        114.5   1.55637e+10
          115   1.55637e+10
        115.5   1.55637e+10
          116   1.55637e+10
        116.5   1.55637e+10
          117   1.55637e+10
        117.5   1.55637e+10
          118   1.55637e+10
        118.5   1.55637e+10
          119   1.55637e+10
        119.5   1.55637e+10
          120   1.55637e+10
        120.5   1.55637e+10
          121   1.55637e+10
        121.5   1.55637e+10
          122   1.55637e+10
        122.5   1.55637e+10
          123   1.55637e+10
        123.5   1.55637e+10
          124   1.55637e+10
        124.5   1.55637e+10
          125   1.55637e+10
        125.5   1.55637e+10
          126   1.55637e+10
        126.5   1.55637e+10
          127   1.55637e+10
        127.5   1.55637e+10
          128   1.55637e+10
        128.5   1.55637e+10
          129   1.55637e+10
        129.5   1.55637e+10
          130   1.55637e+10
        130.5   1.55637e+10
          131   1.55637e+10
        131.5   1.55637e+10
          132   1.55637e+10
        132.5   1.55637e+10
          133   1.55637e+10
        133.5   1.55637e+10
          134   1.55637e+10
        134.5   1.55637e+10
          135   1.55637e+10
        135.5   1.55637e+10
          136   1.55637e+10
        136.5   1.55637e+10
          137   1.55637e+10
        137.5   1.55637e+10
          138   1.55637e+10
        138.5   1.55637e+10
          139   1.55637e+10
        139.5   1.55637e+10
          140   1.55637e+10
        140.5   1.55637e+10
          141   1.55637e+10
        141.5   1.55637e+10
          142   1.55637e+10
        142.5   1.55637e+10
          143   1.55637e+10
        143.5   1.55637e+10
          144   1.55637e+10
        144.5   1.55637e+10
          145   1.55637e+10
        145.5   1.55637e+10
          146   1.55637e+10
        146.5   1.55637e+10
          147   1.55637e+10
        147.5   1.55637e+10
          148   1.55637e+10
        148.5   1.55637e+10
          149   1.55637e+10
        149.5   1.55637e+10
          150   1.55637e+10
        150.5   1.55637e+10
          151   1.55637e+10
        151.5   1.55637e+10
          152   1.55637e+10
        152.5   1.55637e+10
          153   1.55637e+10
        153.5   1.55637e+10
          154   1.55637e+10
        154.5   1.55637e+10
          155   1.55637e+10
        155.5   1.55637e+10
          156   1.55637e+10
        156.5   1.55637e+10
          157   1.55637e+10
        157.5   1.55637e+10
          158   1.55637e+10
        158.5   1.55637e+10
          159   1.55637e+10
        159.5   1.55637e+10
          160   1.55637e+10
        160.5   1.55637e+10
          161   1.55637e+10
        161.5   1.55637e+10
          162   1.55637e+10
        162.5   1.55637e+10
          163   1.55637e+10
        163.5   1.55637e+10
          164   1.55637e+10
        164.5   1.55637e+10
          165   1.55637e+10
        165.5   1.55637e+10
          166   1.55637e+10
        166.5   1.55637e+10
          167   1.55637e+10
        167.5   1.55637e+10
          168   1.55637e+10
        168.5   1.55637e+10
          169   1.55637e+10
        169.5   1.55637e+10
          170   1.55637e+10
        170.5   1.55637e+10
          171   1.55637e+10
        171.5   1.55637e+10
          172   1.55637e+10
        172.5   1.55637e+10
          173   1.55637e+10
        173.5   1.55637e+10
          174   1.55637e+10
        174.5   1.55637e+10
          175   1.55637e+10
        175.5   1.55637e+10
          176   1.55637e+10
        176.5   1.55637e+10
          177   1.55637e+10
        177.5   1.55637e+10
          178   1.55637e+10
        178.5   1.55637e+10
          179   1.55637e+10
        179.5   1.55637e+10
          180   1.55637e+10
        180.5   1.55637e+10
          181   1.55637e+10
        181.5   1.55637e+10
          182   1.55637e+10
        182.5   1.55637e+10
          183   1.55637e+10
        183.5   1.55637e+10
          184   1.55637e+10
        184.5   1.55637e+10
          185   1.55637e+10
        185.5   1.55637e+10
          186   1.55637e+10
        186.5   1.55637e+10
          187   1.55637e+10
        187.5   1.55637e+10
          188   1.55637e+10
        188.5   1.55637e+10
          189   1.55637e+10
        189.5   1.55637e+10
          190   1.55637e+10
        190.5   1.55637e+10
          191   1.55637e+10
        191.5   1.55637e+10
          192   1.55637e+10
        192.5   1.55637e+10
          193   1.55637e+10
        193.5   1.55637e+10
          194   1.55637e+10
        194.5   1.55637e+10
          195   1.55637e+10
        195.5   1.55637e+10
          196   1.55637e+10
        196.5   1.55637e+10
          197   1.55637e+10
        197.5   1.55637e+10
          198   1.55637e+10
        198.5   1.55637e+10
          199   1.55637e+10
        199.5   1.55637e+10
          200   1.55637e+10
        200.5   1.55637e+10
          201   1.55637e+10
        201.5   1.55637e+10
          202   1.55637e+10
        202.5   1.55637e+10
          203   1.55637e+10
        203.5   1.55637e+10
          204   1.55637e+10
        204.5   1.55637e+10
          205   1.55637e+10
        205.5   1.55637e+10
          206   1.55637e+10
        206.5   1.55637e+10
          207   1.55637e+10
        207.5   1.55637e+10
          208   1.55637e+10
        208.5   1.55637e+10
          209   1.55637e+10
        209.5   1.55637e+10
          210   1.55637e+10
        210.5   1.55637e+10
          211   1.55637e+10
        211.5   1.55637e+10
          212   1.55637e+10
        212.5   1.55637e+10
          213   1.55637e+10
        213.5   1.55637e+10
          214   1.55637e+10
        214.5   1.55637e+10
          215   1.55637e+10
        215.5   1.55637e+10
          216   1.55637e+10
        216.5   1.55637e+10
          217   1.55637e+10
        217.5   1.55637e+10
          218   1.55637e+10
        218.5   1.55637e+10
          219   1.55637e+10
        219.5   1.55637e+10
          220   1.55637e+10
        220.5   1.55637e+10
          221   1.55637e+10
        221.5   1.55637e+10
          222   1.55637e+10
        222.5   1.55637e+10
          223   1.55637e+10
        223.5   1.55637e+10
          224   1.55637e+10
        224.5   1.55637e+10
          225   1.55637e+10
        225.5   1.55637e+10
          226   1.55637e+10
        226.5   1.55637e+10
          227   1.55637e+10
        227.5   1.55637e+10
          228   1.55637e+10
        228.5   1.55637e+10
          229   1.55637e+10
        229.5   1.55637e+10
          230   1.55637e+10
        230.5   1.55637e+10
          231   1.55637e+10
        231.5   1.55637e+10
          232   1.55637e+10
        232.5   1.55637e+10
          233   1.55637e+10
        233.5   1.55637e+10
          234   1.55637e+10
        234.5   1.55637e+10
          235   1.55637e+10
        235.5   1.55637e+10
          236   1.55637e+10
        236.5   1.55637e+10
          237   1.55637e+10
        237.5   1.55637e+10
          238   1.55637e+10
        238.5   1.55637e+10
          239   1.55637e+10
        239.5   1.55637e+10
          240   1.55637e+10
        240.5   1.55637e+10
          241   1.55637e+10
        241.5   1.55637e+10
          242   1.55637e+10
        242.5   1.55637e+10
          243   1.55637e+10
        243.5   1.55637e+10
          244   1.55637e+10
        244.5   1.55637e+10
          245   1.55637e+10
        245.5   1.55637e+10
          246   1.55637e+10
        246.5   1.55637e+10
          247   1.55637e+10
        247.5   1.55637e+10
          248   1.55637e+10
        248.5   1.55637e+10
          249   1.55637e+10
        249.5   1.55637e+10
          250   1.55637e+10
        250.5   1.55637e+10
          251   1.55637e+10
        251.5   1.55637e+10
          252   1.55637e+10
        252.5   1.55637e+10
          253   1.55637e+10
        253.5   1.55637e+10
          254   1.55637e+10
        254.5   1.55637e+10
          255   1.55637e+10
        255.5   1.55637e+10
          256   1.55637e+10
        256.5   1.55637e+10
          257   1.55637e+10
        257.5   1.55637e+10
          258   1.55637e+10
        258.5   1.55637e+10
          259   1.55637e+10
        259.5   1.55637e+10
          260   1.55637e+10
        260.5   1.55637e+10
          261   1.55637e+10
        261.5   1.55637e+10
          262   1.55637e+10
        262.5   1.55637e+10
          263   1.55637e+10
        263.5   1.55637e+10
          264   1.55637e+10
        264.5   1.55637e+10
          265   1.55637e+10
        265.5   1.55637e+10
          266   1.55637e+10
        266.5   1.55637e+10
          267   1.55637e+10
        267.5   1.55637e+10
          268   1.55637e+10
        268.5   1.55637e+10
          269   1.55637e+10
        269.5   1.55637e+10
          270   1.55637e+10
        270.5   1.55637e+10
          271   1.55637e+10
        271.5   1.55637e+10
          272   1.55637e+10
        272.5   1.55637e+10
          273   1.55637e+10
        273.5   1.55637e+10
          274   1.55637e+10
        274.5   1.55637e+10
          275   1.55637e+10
        275.5   1.55637e+10
          276   1.55637e+10
        276.5   1.55637e+10
          277   1.55637e+10
        277.5   1.55637e+10
          278   1.55637e+10
        278.5   1.55637e+10
          279   1.55637e+10
        279.5   1.55637e+10
          280   1.55637e+10
        280.5   1.55637e+10
          281   1.55637e+10
        281.5   1.55637e+10
          282   1.55637e+10
        282.5   1.55637e+10
          283   1.55637e+10
        283.5   1.55637e+10
          284   1.55637e+10
        284.5   1.55637e+10
          285   1.55637e+10
        285.5   1.55637e+10
          286   1.55637e+10
        286.5   1.55637e+10
          287   1.55637e+10
        287.5   1.55637e+10
          288   1.55637e+10
        288.5   1.55637e+10
          289   1.55637e+10
        289.5   1.55637e+10
          290   1.55637e+10
        290.5   1.55637e+10
          291   1.55637e+10
        291.5   1.55637e+10
          292   1.55637e+10
        292.5   1.55637e+10
          293   1.55637e+10
        293.5   1.55637e+10
          294   1.55637e+10
        294.5   1.55637e+10
          295   1.55637e+10
        295.5   1.55637e+10
          296   1.55637e+10
        296.5   1.55637e+10
          297   1.55637e+10
        297.5   1.55637e+10
          298   1.55637e+10
        298.5   1.55637e+10
          299   1.55637e+10
        299.5   1.55637e+10
          300   1.55637e+10
        300.5   1.55637e+10
          301   1.55637e+10
        301.5   1.55637e+10
          302   1.55637e+10
        302.5   1.55637e+10
          303   1.55637e+10
        303.5   1.55637e+10
          304   1.55637e+10
        304.5   1.55637e+10
          305   1.55637e+10
        305.5   1.55637e+10
          306   1.55637e+10
        306.5   1.55637e+10
          307   1.55637e+10
        307.5   1.55637e+10
          308   1.55637e+10
        308.5   1.55637e+10
          309   1.55637e+10
        309.5   1.55637e+10
          310   1.55637e+10
        310.5   1.55637e+10
          311   1.55637e+10
        311.5   1.55637e+10
          312   1.55637e+10
        312.5   1.55637e+10
          313   1.55637e+10
        313.5   1.55637e+10
          314   1.55637e+10
        314.5   1.55637e+10
          315   1.55637e+10
        315.5   1.55637e+10
          316   1.55637e+10
        316.5   1.55637e+10
          317   1.55637e+10
        317.5   1.55637e+10
          318   1.55637e+10
        318.5   1.55637e+10
          319   1.55637e+10
        319.5   1.55637e+10
          320   1.55637e+10
        320.5   1.55637e+10
          321   1.55637e+10
        321.5   1.55637e+10
          322   1.55637e+10
        322.5   1.55637e+10
          323   1.55637e+10
        323.5   1.55637e+10
          324   1.55637e+10
        324.5   1.55637e+10
          325   1.55637e+10
        325.5   1.55637e+10
          326   1.55637e+10
        326.5   1.55637e+10
          327   1.55637e+10
        327.5   1.55637e+10
          328   1.55637e+10
        328.5   1.55637e+10
          329   1.55637e+10
        329.5   1.55637e+10
          330   1.55637e+10
        330.5   1.55637e+10
          331   1.55637e+10
        331.5   1.55637e+10
          332   1.55637e+10
        332.5   1.55637e+10
          333   1.55637e+10
        333.5   1.55637e+10
          334   1.55637e+10
        334.5   1.55637e+10
          335   1.55637e+10
        335.5   1.55637e+10
          336   1.55637e+10
        336.5   1.55637e+10
          337   1.55637e+10
        337.5   1.55637e+10
          338   1.55637e+10
        338.5   1.55637e+10
          339   1.55637e+10
        339.5   1.55637e+10
          340   1.55637e+10
        340.5   1.55637e+10
          341   1.55637e+10
        341.5   1.55637e+10
          342   1.55637e+10
        342.5   1.55637e+10
          343   1.55637e+10
        343.5   1.55637e+10
          344   1.55637e+10
        344.5   1.55637e+10
          345   1.55637e+10
        345.5   1.55637e+10
          346   1.55637e+10
        346.5   1.55637e+10
          347   1.55637e+10
        347.5   1.55637e+10
          348   1.55637e+10
        348.5   1.55637e+10
          349   1.55637e+10
        349.5   1.55637e+10
          350   1.55637e+10
        350.5   1.55637e+10
          351   1.55637e+10
        351.5   1.55637e+10
          352   1.55637e+10
        352.5   1.55637e+10
          353   1.55637e+10
        353.5   1.55637e+10
          354   1.55637e+10
        354.5   1.55637e+10
          355   1.55637e+10
        355.5   1.55637e+10
          356   1.55637e+10
        356.5   1.55637e+10
          357   1.55637e+10
        357.5   1.55637e+10
          358   1.55637e+10
        358.5   1.55637e+10
          359   1.55637e+10
        359.5   1.55637e+10
          360   1.55637e+10
        360.5   1.55637e+10
          361   1.55637e+10
        361.5   1.55637e+10
          362   1.55637e+10
        362.5   1.55637e+10
          363   1.55637e+10
        363.5   1.55637e+10
          364   1.55637e+10
        364.5   1.55637e+10
          365   1.55637e+10
        365.5   1.55637e+10
          366   1.55637e+10
        366.5   1.55637e+10
          367   1.55637e+10
        367.5   1.55637e+10
          368   1.55637e+10
        368.5   1.55637e+10
          369   1.55637e+10
        369.5   1.55637e+10
          370   1.55637e+10
        370.5   1.55637e+10
          371   1.55637e+10
        371.5   1.55637e+10
          372   1.55637e+10
        372.5   1.55637e+10
          373   1.55637e+10
        373.5   1.55637e+10
          374   1.55637e+10
        374.5   1.55637e+10
          375   1.55637e+10
        375.5   1.55637e+10
          376   1.55637e+10
        376.5   1.55637e+10
          377   1.55637e+10
        377.5   1.55637e+10
          378   1.55637e+10
        378.5   1.55637e+10
          379   1.55637e+10
        379.5   1.55637e+10
          380   1.55637e+10
        380.5   1.55637e+10
          381   1.55637e+10
        381.5   1.55637e+10
          382   1.55637e+10
        382.5   1.55637e+10
          383   1.55637e+10
        383.5   1.55637e+10
          384   1.55637e+10
        384.5   1.55637e+10
          385   1.55637e+10
        385.5   1.55637e+10
          386   1.55637e+10
        386.5   1.55637e+10
          387   1.55637e+10
        387.5   1.55637e+10
          388   1.55637e+10
        388.5   1.55637e+10
          389   1.55637e+10
        389.5   1.55637e+10
          390   1.55637e+10
        390.5   1.55637e+10
          391   1.55637e+10
        391.5   1.55637e+10
          392   1.55637e+10
        392.5   1.55637e+10
          393   1.55637e+10
        393.5   1.55637e+10
          394   1.55637e+10
        394.5   1.55637e+10
          395   1.55637e+10
        395.5   1.55637e+10
          396   1.55637e+10
        396.5   1.55637e+10
          397   1.55637e+10
        397.5   1.55637e+10
          398   1.55637e+10
        398.5   1.55637e+10
          399   1.55637e+10
        399.5   1.55637e+10
          400   1.55637e+10
        400.5   1.55637e+10
          401   1.55637e+10
        401.5   1.55637e+10
          402   1.55637e+10
        402.5   1.55637e+10
          403   1.55637e+10
        403.5   1.55637e+10
          404   1.55637e+10
        404.5   1.55637e+10
          405   1.55637e+10
        405.5   1.55637e+10
          406   1.55637e+10
        406.5   1.55637e+10
          407   1.55637e+10
        407.5   1.55637e+10
          408   1.55637e+10
        408.5   1.55637e+10
          409   1.55637e+10
        409.5   1.55637e+10
          410   1.55637e+10
        410.5   1.55637e+10
          411   1.55637e+10
        411.5   1.55637e+10
          412   1.55637e+10
        412.5   1.55637e+10
          413   1.55637e+10
        413.5   1.55637e+10
          414   1.55637e+10
        414.5   1.55637e+10
          415   1.55637e+10
        415.5   1.55637e+10
          416   1.55637e+10
        416.5   1.55637e+10
          417   1.55637e+10
        417.5   1.55637e+10
          418   1.55637e+10
        418.5   1.55637e+10
          419   1.55637e+10
        419.5   1.55637e+10
          420   1.55637e+10
        420.5   1.55637e+10
          421   1.55637e+10
        421.5   1.55637e+10
          422   1.55637e+10
        422.5   1.55637e+10
          423   1.55637e+10
        423.5   1.55637e+10
          424   1.55637e+10
        424.5   1.55637e+10
          425   1.55637e+10
        425.5   1.55637e+10
          426   1.55637e+10
        426.5   1.55637e+10
          427   1.55637e+10
        427.5   1.55637e+10
          428   1.55637e+10
        428.5   1.55637e+10
          429   1.55637e+10
        429.5   1.55637e+10
          430   1.55637e+10
        430.5   1.55637e+10
          431   1.55637e+10
        431.5   1.55637e+10
          432   1.55637e+10
        432.5   1.55637e+10
          433   1.55637e+10
        433.5   1.55637e+10
          434   1.55637e+10
        434.5   1.55637e+10
          435   1.55637e+10
        435.5   1.55637e+10
          436   1.55637e+10
        436.5   1.55637e+10
          437   1.55637e+10
        437.5   1.55637e+10
          438   1.55637e+10
        438.5   1.55637e+10
          439   1.55637e+10
        439.5   1.55637e+10
          440   1.55637e+10
        440.5   1.55637e+10
          441   1.55637e+10
        441.5   1.55637e+10
          442   1.55637e+10
        442.5   1.55637e+10
          443   1.55637e+10
        443.5   1.55637e+10
          444   1.55637e+10
        444.5   1.55637e+10
          445   1.55637e+10
        445.5   1.55637e+10
          446   1.55637e+10
        446.5   1.55637e+10
          447   1.55637e+10
        447.5   1.55637e+10
          448   1.55637e+10
        448.5   1.55637e+10
          449   1.55637e+10
        449.5   1.55637e+10
          450   1.55637e+10
        450.5   1.55637e+10
          451   1.55637e+10
        451.5   1.55637e+10
          452   1.55637e+10
        452.5   1.55637e+10
          453   1.55637e+10
        453.5   1.55637e+10
          454   1.55637e+10
        454.5   1.55637e+10
          455   1.55637e+10
        455.5   1.55637e+10
          456   1.55637e+10
        456.5   1.55637e+10
          457   1.55637e+10
        457.5   1.55637e+10
          458   1.55637e+10
        458.5   1.55637e+10
          459   1.55637e+10
        459.5   1.55637e+10
          460   1.55637e+10
        460.5   1.55637e+10
          461   1.55637e+10
        461.5   1.55637e+10
          462   1.55637e+10
        462.5   1.55637e+10
          463   1.55637e+10
        463.5   1.55637e+10
          464   1.55637e+10
        464.5   1.55637e+10
          465   1.55637e+10
        465.5   1.55637e+10
          466   1.55637e+10
        466.5   1.55637e+10
          467   1.55637e+10
        467.5   1.55637e+10
          468   1.55637e+10
        468.5   1.55637e+10
          469   1.55637e+10
        469.5   1.55637e+10
          470   1.55637e+10
        470.5   1.55637e+10
          471   1.55637e+10
        471.5   1.55637e+10
          472   1.55637e+10
        472.5   1.55637e+10
          473   1.55637e+10
        473.5   1.55637e+10
          474   1.55637e+10
        474.5   1.55637e+10
          475   1.55637e+10
        475.5   1.55637e+10
          476   1.55637e+10
        476.5   1.55637e+10
          477   1.55637e+10
        477.5   1.55637e+10
          478   1.55637e+10
        478.5   1.55637e+10
          479   1.55637e+10
        479.5   1.55637e+10
          480   1.55637e+10
        480.5   1.55637e+10
          481   1.55637e+10
        481.5   1.55637e+10
          482   1.55637e+10
        482.5   1.55637e+10
          483   1.55637e+10
        483.5   1.55637e+10
          484   1.55637e+10
        484.5   1.55637e+10
          485   1.55637e+10
        485.5   1.55637e+10
          486   1.55637e+10
        486.5   1.55637e+10
          487   1.55637e+10
        487.5   1.55637e+10
          488   1.55637e+10
        488.5   1.55637e+10
          489   1.55637e+10
        489.5   1.55637e+10
          490   1.55637e+10
        490.5   1.55637e+10
          491   1.55637e+10
        491.5   1.55637e+10
          492   1.55637e+10
        492.5   1.55637e+10
          493   1.55637e+10
        493.5   1.55637e+10
          494   1.55637e+10
        494.5   1.55637e+10
          495   1.55637e+10
        495.5   1.55637e+10
          496   1.55637e+10
        496.5   1.55637e+10
          497   1.55637e+10
        497.5   1.55637e+10
          498   1.55637e+10
        498.5   1.55637e+10
          499   1.55637e+10
        499.5   1.55637e+10
          500   1.55637e+10
        500.5   1.55637e+10
          501   1.55637e+10
        501.5   1.55637e+10
          502   1.55637e+10
        502.5   1.55637e+10
          503   1.55637e+10
        503.5   1.55637e+10
          504   1.55637e+10
        504.5   1.55637e+10
          505   1.55637e+10
        505.5   1.55637e+10
          506   1.55637e+10
        506.5   1.55637e+10
          507   1.55637e+10
        507.5   1.55637e+10
          508   1.55637e+10
        508.5   1.55637e+10
          509   1.55637e+10
        509.5   1.55637e+10
          510   1.55637e+10
        510.5   1.55637e+10
          511   1.55637e+10
        511.5   1.55637e+10
          512   1.55637e+10
        512.5   1.55637e+10
          513   1.55637e+10
        513.5   1.55637e+10
          514   1.55637e+10
        514.5   1.55637e+10
          515   1.55637e+10
        515.5   1.55637e+10
          516   1.55637e+10
        516.5   1.55637e+10
          517   1.55637e+10
        517.5   1.55637e+10
          518   1.55637e+10
        518.5   1.55637e+10
          519   1.55637e+10
        519.5   1.55637e+10
          520   1.55637e+10
        520.5   1.55637e+10
          521   1.55637e+10
        521.5   1.55637e+10
          522   1.55637e+10
        522.5   1.55637e+10
          523   1.55637e+10
        523.5   1.55637e+10
          524   1.55637e+10
        524.5   1.55637e+10
          525   1.55637e+10
        525.5   1.55637e+10
          526   1.55637e+10
        526.5   1.55637e+10
          527   1.55637e+10
        527.5   1.55637e+10
          528   1.55637e+10
        528.5   1.55637e+10
          529   1.55637e+10
        529.5   1.55637e+10
          530   1.55637e+10
        530.5   1.55637e+10
          531   1.55637e+10
        531.5   1.55637e+10
          532   1.55637e+10
        532.5   1.55637e+10
          533   1.55637e+10
        533.5   1.55637e+10
          534   1.55637e+10