# Probe 0 (0.05 0.05 0.005)
#       Probe             0
#        Time
          0.5       22.6936
            1       22.6936
          1.5       22.6936
            2       22.6936
          2.5       22.6936
            3       22.6936
          3.5       22.6936
            4       22.6936
          4.5       22.6936
            5       22.6936
          5.5       22.6936
            6       22.6936
          6.5       22.6936
            7       22.6936
          7.5       22.6936
            8       22.6936
          8.5       22.6936
            9       22.6936
          9.5       22.6936
           10       22.6936
         10.5       22.6936
           11       22.6936
         11.5       22.6936
           12       22.6936
         12.5       22.6936
           13       22.6936
         13.5       22.6936
           14       22.6936
         14.5       22.6936
           15       22.6936
         15.5       22.6936
           16       22.6936
         16.5       22.6936
           17       22.6936
         17.5       22.6936
           18       22.6936
         18.5       22.6936
           19       22.6936
         19.5       22.6936
           20       22.6936
         20.5       22.6936
           21       22.6936
         21.5       22.6936
           22       22.6936
         22.5       22.6936
           23       22.6936
         23.5       22.6936
           24       22.6936
         24.5       22.6936
           25       22.6936
         25.5       22.6936
           26       22.6936
         26.5       22.6936
           27       22.6936
         27.5       22.6936
           28       22.6936
         28.5       22.6936
           29       22.6936
         29.5       22.6936
           30       22.6936
         30.5       22.6936
           31       22.6936
         31.5       22.6936
           32       22.6936
         32.5       22.6936
           33       22.6936
         33.5       22.6936
           34       22.6936
         34.5       22.6936
           35       22.6936
         35.5       22.6936
           36       22.6936
         36.5       22.6936
           37       22.6936
         37.5       22.6936
           38       22.6936
         38.5       22.6936
           39       22.6936
         39.5       22.6936
           40       22.6936
         40.5       22.6936
           41       22.6936
         41.5       22.6936
           42       22.6936
         42.5       22.6936
           43       22.6936
         43.5       22.6936
           44       22.6936
         44.5       22.6936
           45       22.6936
         45.5       22.6936
           46       22.6936
         46.5       22.6936
           47       22.6936
         47.5       22.6936
           48       22.6936
         48.5       22.6936
           49       22.6936
         49.5       22.6936
           50       22.6936
         50.5       22.6936
           51       22.6936
         51.5       22.6936
           52       22.6936
         52.5       22.6936
           53       22.6936
         53.5       22.6936
           54       22.6936
         54.5       22.6936
           55       22.6936
         55.5       22.6936
           56       22.6936
         56.5       22.6936
           57       22.6936
         57.5       22.6936
           58       22.6936
         58.5       22.6936
           59       22.6936
         59.5       22.6936
           60       22.6936
         60.5       22.6936
           61       22.6936
         61.5       22.6936
           62       22.6936
         62.5       22.6936
           63       22.6936
         63.5       22.6936
           64       22.6936
         64.5       22.6936
           65       22.6936
         65.5       22.6936
           66       22.6936
         66.5       22.6936
           67       22.6936
         67.5       22.6936
           68       22.6936
         68.5       22.6936
           69       22.6936
         69.5       22.6936
           70       22.6936
         70.5       22.6936
           71       22.6936
         71.5       22.6936
           72       22.6936
         72.5       22.6936
           73       22.6936
         73.5       22.6936
           74       22.6936
         74.5       22.6936
           75       22.6936
         75.5       22.6936
           76       22.6936
         76.5       22.6936
           77       22.6936
         77.5       22.6936
           78       22.6936
         78.5       22.6936
           79       22.6936
         79.5       22.6936
           80       22.6936
         80.5       22.6936
           81       22.6936
         81.5       22.6936
           82       22.6936
         82.5       22.6936
           83       22.6936
         83.5       22.6936
           84       22.6936
         84.5       22.6936
           85       22.6936
         85.5       22.6936
           86       22.6936
         86.5       22.6936
           87       22.6936
         87.5       22.6936
           88       22.6936
         88.5       22.6936
           89       22.6936
         89.5       22.6936
           90       22.6936
         90.5       22.6936
           91       22.6936
         91.5       22.6936
           92       22.6936
         92.5       22.6936
           93       22.6936
         93.5       22.6936
           94       22.6936
         94.5       22.6936
           95       22.6936
         95.5       22.6936
           96       22.6936
         96.5       22.6936
           97       22.6936
         97.5       22.6936
           98       22.6936
         98.5       22.6936
           99       22.6936
         99.5       22.6936
          100       22.6936
        100.5       22.6936
          101       22.6936
        101.5       22.6936
          102       22.6936
        102.5       22.6936
          103       22.6936
        103.5       22.6936
          104       22.6936
        104.5       22.6936
          105       22.6936
        105.5       22.6936
          106       22.6936
        106.5       22.6936
          107       22.6936
        107.5       22.6936
          108       22.6936
        108.5       22.6936
          109       22.6936
        109.5       22.6936
          110       22.6936
        110.5       22.6936
          111       22.6936
        111.5       22.6936
          112       22.6936
        112.5       22.6936
          113       22.6936
        113.5       22.6936
          114       22.6936
        114.5       22.6936
          115       22.6936
        115.5       22.6936
          116       22.6936
        116.5       22.6936
          117       22.6936
        117.5       22.6936
          118       22.6936
        118.5       22.6936
          119       22.6936
        119.5       22.6936
          120       22.6936
        120.5       22.6936
          121       22.6936
        121.5       22.6936
          122       22.6936
        122.5       22.6936
          123       22.6936
        123.5       22.6936
          124       22.6936
        124.5       22.6936
          125       22.6936
        125.5       22.6936
          126       22.6936
        126.5       22.6936
          127       22.6936
        127.5       22.6936
          128       22.6936
        128.5       22.6936
          129       22.6936
        129.5       22.6936
          130       22.6936
        130.5       22.6936
          131       22.6936
        131.5       22.6936
          132       22.6936
        132.5       22.6936
          133       22.6936
        133.5       22.6936
          134       22.6936
        134.5       22.6936
          135       22.6936
        135.5       22.6936
          136       22.6936
        136.5       22.6936
          137       22.6936
        137.5       22.6936
          138       22.6936
        138.5       22.6936
          139       22.6936
        139.5       22.6936
          140       22.6936
        140.5       22.6936
          141       22.6936
        141.5       22.6936
          142       22.6936
        142.5       22.6936
          143       22.6936
        143.5       22.6936
          144       22.6936
        144.5       22.6936
          145       22.6936
        145.5       22.6936
          146       22.6936
        146.5       22.6936
          147       22.6936
        147.5       22.6936
          148       22.6936
        148.5       22.6936
          149       22.6936
        149.5       22.6936
          150       22.6936
        150.5       22.6936
          151       22.6936
        151.5       22.6936
          152       22.6936
        152.5       22.6936
          153       22.6936
        153.5       22.6936
          154       22.6936
        154.5       22.6936
          155       22.6936
        155.5       22.6936
          156       22.6936
        156.5       22.6936
          157       22.6936
        157.5       22.6936
          158       22.6936
        158.5       22.6936
          159       22.6936
        159.5       22.6936
          160       22.6936
        160.5       22.6936
          161       22.6936
        161.5       22.6936
          162       22.6936
        162.5       22.6936
          163       22.6936
        163.5       22.6936
          164       22.6936
        164.5       22.6936
          165       22.6936
        165.5       22.6936
          166       22.6936
        166.5       22.6936
          167       22.6936
        167.5       22.6936
          168       22.6936
        168.5       22.6936
          169       22.6936
        169.5       22.6936
          170       22.6936
        170.5       22.6936
          171       22.6936
        171.5       22.6936
          172       22.6936
        172.5       22.6936
          173       22.6936
        173.5       22.6936
          174       22.6936
        174.5       22.6936
          175       22.6936
        175.5       22.6936
          176       22.6936
        176.5       22.6936
          177       22.6936
        177.5       22.6936
          178       22.6936
        178.5       22.6936
          179       22.6936
        179.5       22.6936
          180       22.6936
        180.5       22.6936
          181       22.6936
        181.5       22.6936
          182       22.6936
        182.5       22.6936
          183       22.6936
        183.5       22.6936
          184       22.6936
        184.5       22.6936
          185       22.6936
        185.5       22.6936
          186       22.6936
        186.5       22.6936
          187       22.6936
        187.5       22.6936
          188       22.6936
        188.5       22.6936
          189       22.6936
        189.5       22.6936
          190       22.6936
        190.5       22.6936
          191       22.6936
        191.5       22.6936
          192       22.6936
        192.5       22.6936
          193       22.6936
        193.5       22.6936
          194       22.6936
        194.5       22.6936
          195       22.6936
        195.5       22.6936
          196       22.6936
        196.5       22.6936
          197       22.6936
        197.5       22.6936
          198       22.6936
        198.5       22.6936
          199       22.6936
        199.5       22.6936
          200       22.6936
        200.5       22.6936
          201       22.6936
        201.5       22.6936
          202       22.6936
        202.5       22.6936
          203       22.6936
        203.5       22.6936
          204       22.6936
        204.5       22.6936
          205       22.6936
        205.5       22.6936
          206       22.6936
        206.5       22.6936
          207       22.6936
        207.5       22.6936
          208       22.6936
        208.5       22.6936
          209       22.6936
        209.5       22.6936
          210       22.6936
        210.5       22.6936
          211       22.6936
        211.5       22.6936
          212       22.6936
        212.5       22.6936
          213       22.6936
        213.5       22.6936
          214       22.6936
        214.5       22.6936
          215       22.6936
        215.5       22.6936
          216       22.6936
        216.5       22.6936
          217       22.6936
        217.5       22.6936
          218       22.6936
        218.5       22.6936
          219       22.6936
        219.5       22.6936
          220       22.6936
        220.5       22.6936
          221       22.6936
        221.5       22.6936
          222       22.6936
        222.5       22.6936
          223       22.6936
        223.5       22.6936
          224       22.6936
        224.5       22.6936
          225       22.6936
        225.5       22.6936
          226       22.6936
        226.5       22.6936
          227       22.6936
        227.5       22.6936
          228       22.6936
        228.5       22.6936
          229       22.6936
        229.5       22.6936
          230       22.6936
        230.5       22.6936
          231       22.6936
        231.5       22.6936
          232       22.6936
        232.5       22.6936
          233       22.6936
        233.5       22.6936
          234       22.6936
        234.5       22.6936
          235       22.6936
        235.5       22.6936
          236       22.6936
        236.5       22.6936
          237       22.6936
        237.5       22.6936
          238       22.6936
        238.5       22.6936
          239       22.6936
        239.5       22.6936
          240       22.6936
        240.5       22.6936
          241       22.6936
        241.5       22.6936
          242       22.6936
        242.5       22.6936
          243       22.6936
        243.5       22.6936
          244       22.6936
        244.5       22.6936
          245       22.6936
        245.5       22.6936
          246       22.6936
        246.5       22.6936
          247       22.6936
        247.5       22.6936
          248       22.6936
        248.5       22.6936
          249       22.6936
        249.5       22.6936
          250       22.6936
        250.5       22.6936
          251       22.6936
        251.5       22.6936
          252       22.6936
        252.5       22.6936
          253       22.6936
        253.5       22.6936
          254       22.6936
        254.5       22.6936
          255       22.6936
        255.5       22.6936
          256       22.6936
        256.5       22.6936
          257       22.6936
        257.5       22.6936
          258       22.6936
        258.5       22.6936
          259       22.6936
        259.5       22.6936
          260       22.6936
        260.5       22.6936
          261       22.6936
        261.5       22.6936
          262       22.6936
        262.5       22.6936
          263       22.6936
        263.5       22.6936
          264       22.6936
        264.5       22.6936
          265       22.6936
        265.5       22.6936
          266       22.6936
        266.5       22.6936
          267       22.6936
        267.5       22.6936
          268       22.6936
        268.5       22.6936
          269       22.6936
        269.5       22.6936
          270       22.6936
        270.5       22.6936
          271       22.6936
        271.5       22.6936
          272       22.6936
        272.5       22.6936
          273       22.6936
        273.5       22.6936
          274       22.6936
        274.5       22.6936
          275       22.6936
        275.5       22.6936
          276       22.6936
        276.5       22.6936
          277       22.6936
        277.5       22.6936
          278       22.6936
        278.5       22.6936
          279       22.6936
        279.5       22.6936
          280       22.6936
        280.5       22.6936
          281       22.6936
        281.5       22.6936
          282       22.6936
        282.5       22.6936
          283       22.6936
        283.5       22.6936
          284       22.6936
        284.5       22.6936
          285       22.6936
        285.5       22.6936
          286       22.6936
        286.5       22.6936
          287       22.6936
        287.5       22.6936
          288       22.6936
        288.5       22.6936
          289       22.6936
        289.5       22.6936
          290       22.6936
        290.5       22.6936
          291       22.6936
        291.5       22.6936
          292       22.6936
        292.5       22.6936
          293       22.6936
        293.5       22.6936
          294       22.6936
        294.5       22.6936
          295       22.6936
        295.5       22.6936
          296       22.6936
        296.5       22.6936
          297       22.6936
        297.5       22.6936
          298       22.6936
        298.5       22.6936
          299       22.6936
        299.5       22.6936
          300       22.6936
        300.5       22.6936
          301       22.6936
        301.5       22.6936
          302       22.6936
        302.5       22.6936
          303       22.6936
        303.5       22.6936
          304       22.6936
        304.5       22.6936
          305       22.6936
        305.5       22.6936
          306       22.6936
        306.5       22.6936
          307       22.6936
        307.5       22.6936
          308       22.6936
        308.5       22.6936
          309       22.6936
        309.5       22.6936
          310       22.6936
        310.5       22.6936
          311       22.6936
        311.5       22.6936
          312       22.6936
        312.5       22.6936
          313       22.6936
        313.5       22.6936
          314       22.6936
        314.5       22.6936
          315       22.6936
        315.5       22.6936
          316       22.6936
        316.5       22.6936
          317       22.6936
        317.5       22.6936
          318       22.6936
        318.5       22.6936
          319       22.6936
        319.5       22.6936
          320       22.6936
        320.5       22.6936
          321       22.6936
        321.5       22.6936
          322       22.6936
        322.5       22.6936
          323       22.6936
        323.5       22.6936
          324       22.6936
        324.5       22.6936
          325       22.6936
        325.5       22.6936
          326       22.6936
        326.5       22.6936
          327       22.6936
        327.5       22.6936
          328       22.6936
        328.5       22.6936
          329       22.6936
        329.5       22.6936
          330       22.6936
        330.5       22.6936
          331       22.6936
        331.5       22.6936
          332       22.6936
        332.5       22.6936
          333       22.6936
        333.5       22.6936
          334       22.6936
        334.5       22.6936
          335       22.6936
        335.5       22.6936
          336       22.6936
        336.5       22.6936
          337       22.6936
        337.5       22.6936
          338       22.6936
        338.5       22.6936
          339       22.6936
        339.5       22.6936
          340       22.6936
        340.5       22.6936
          341       22.6936
        341.5       22.6936
          342       22.6936
        342.5       22.6936
          343       22.6936
        343.5       22.6936
          344       22.6936
        344.5       22.6936
          345       22.6936
        345.5       22.6936
          346       22.6936
        346.5       22.6936
          347       22.6936
        347.5       22.6936
          348       22.6936
        348.5       22.6936
          349       22.6936
        349.5       22.6936
          350       22.6936
        350.5       22.6936
          351       22.6936
        351.5       22.6936
          352       22.6936
        352.5       22.6936
          353       22.6936
        353.5       22.6936
          354       22.6936
        354.5       22.6936
          355       22.6936
        355.5       22.6936
          356       22.6936
        356.5       22.6936
          357       22.6936
        357.5       22.6936
          358       22.6936
        358.5       22.6936
          359       22.6936
        359.5       22.6936
          360       22.6936
        360.5       22.6936
          361       22.6936
        361.5       22.6936
          362       22.6936
        362.5       22.6936
          363       22.6936
        363.5       22.6936
          364       22.6936
        364.5       22.6936
          365       22.6936
        365.5       22.6936
          366       22.6936
        366.5       22.6936
          367       22.6936
        367.5       22.6936
          368       22.6936
        368.5       22.6936
          369       22.6936
        369.5       22.6936
          370       22.6936
        370.5       22.6936
          371       22.6936
        371.5       22.6936
          372       22.6936
        372.5       22.6936
          373       22.6936
        373.5       22.6936
          374       22.6936
        374.5       22.6936
          375       22.6936
        375.5       22.6936
          376       22.6936
        376.5       22.6936
          377       22.6936
        377.5       22.6936
          378       22.6936
        378.5       22.6936
          379       22.6936
        379.5       22.6936
          380       22.6936
        380.5       22.6936
          381       22.6936
        381.5       22.6936
          382       22.6936
        382.5       22.6936
          383       22.6936
        383.5       22.6936
          384       22.6936
        384.5       22.6936
          385       22.6936
        385.5       22.6936
          386       22.6936
        386.5       22.6936
          387       22.6936
        387.5       22.6936
          388       22.6936
        388.5       22.6936
          389       22.6936
        389.5       22.6936
          390       22.6936
        390.5       22.6936
          391       22.6936
        391.5       22.6936
          392       22.6936
        392.5       22.6936
          393       22.6936
        393.5       22.6936
          394       22.6936
        394.5       22.6936
          395       22.6936
        395.5       22.6936
          396       22.6936
        396.5       22.6936
          397       22.6936
        397.5       22.6936
          398       22.6936
        398.5       22.6936
          399       22.6936
        399.5       22.6936
          400       22.6936
        400.5       22.6936
          401       22.6936
        401.5       22.6936
          402       22.6936
        402.5       22.6936
          403       22.6936
        403.5       22.6936
          404       22.6936
        404.5       22.6936
          405       22.6936
        405.5       22.6936
          406       22.6936
        406.5       22.6936
          407       22.6936
        407.5       22.6936
          408       22.6936
        408.5       22.6936
          409       22.6936
        409.5       22.6936
          410       22.6936
        410.5       22.6936
          411       22.6936
        411.5       22.6936
          412       22.6936
        412.5       22.6936
          413       22.6936
        413.5       22.6936
          414       22.6936
        414.5       22.6936
          415       22.6936
        415.5       22.6936
          416       22.6936
        416.5       22.6936
          417       22.6936
        417.5       22.6936
          418       22.6936
        418.5       22.6936
          419       22.6936
        419.5       22.6936
          420       22.6936
        420.5       22.6936
          421       22.6936
        421.5       22.6936
          422       22.6936
        422.5       22.6936
          423       22.6936
        423.5       22.6936
          424       22.6936
        424.5       22.6936
          425       22.6936
        425.5       22.6936
          426       22.6936
        426.5       22.6936
          427       22.6936
        427.5       22.6936
          428       22.6936
        428.5       22.6936
          429       22.6936
        429.5       22.6936
          430       22.6936
        430.5       22.6936
          431       22.6936
        431.5       22.6936
          432       22.6936
        432.5       22.6936
          433       22.6936
        433.5       22.6936
          434       22.6936
        434.5       22.6936
          435       22.6936
        435.5       22.6936
          436       22.6936
        436.5       22.6936
          437       22.6936
        437.5       22.6936
          438       22.6936
        438.5       22.6936
          439       22.6936
        439.5       22.6936
          440       22.6936
        440.5       22.6936
          441       22.6936
        441.5       22.6936
          442       22.6936
        442.5       22.6936
          443       22.6936
        443.5       22.6936
          444       22.6936
        444.5       22.6936
          445       22.6936
        445.5       22.6936
          446       22.6936
        446.5       22.6936
          447       22.6936
        447.5       22.6936
          448       22.6936
        448.5       22.6936
          449       22.6936
        449.5       22.6936
          450       22.6936
        450.5       22.6936
          451       22.6936
        451.5       22.6936
          452       22.6936
        452.5       22.6936
          453       22.6936
        453.5       22.6936
          454       22.6936
        454.5       22.6936
          455       22.6936
        455.5       22.6936
          456       22.6936
        456.5       22.6936
          457       22.6936
        457.5       22.6936
          458       22.6936
        458.5       22.6936
          459       22.6936
        459.5       22.6936
          460       22.6936
        460.5       22.6936
          461       22.6936
        461.5       22.6936
          462       22.6936
        462.5       22.6936
          463       22.6936
        463.5       22.6936
          464       22.6936
        464.5       22.6936
          465       22.6936
        465.5       22.6936
          466       22.6936
        466.5       22.6936
          467       22.6936
        467.5       22.6936
          468       22.6936
        468.5       22.6936
          469       22.6936
        469.5       22.6936
          470       22.6936
        470.5       22.6936
          471       22.6936
        471.5       22.6936
          472       22.6936
        472.5       22.6936
          473       22.6936
        473.5       22.6936
          474       22.6936
        474.5       22.6936
          475       22.6936
        475.5       22.6936
          476       22.6936
        476.5       22.6936
          477       22.6936
        477.5       22.6936
          478       22.6936
        478.5       22.6936
          479       22.6936
        479.5       22.6936
          480       22.6936
        480.5       22.6936
          481       22.6936
        481.5       22.6936
          482       22.6936
        482.5       22.6936
          483       22.6936
        483.5       22.6936
          484       22.6936
        484.5       22.6936
          485       22.6936
        485.5       22.6936
          486       22.6936
        486.5       22.6936
          487       22.6936
        487.5       22.6936
          488       22.6936
        488.5       22.6936
          489       22.6936
        489.5       22.6936
          490       22.6936
        490.5       22.6936
          491       22.6936
        491.5       22.6936
          492       22.6936
        492.5       22.6936
          493       22.6936
        493.5       22.6936
          494       22.6936
        494.5       22.6936
          495       22.6936
        495.5       22.6936
          496       22.6936
        496.5       22.6936
          497       22.6936
        497.5       22.6936
          498       22.6936
        498.5       22.6936
          499       22.6936
        499.5       22.6936
          500       22.6936
        500.5       22.6936
          501       22.6936
        501.5       22.6936
          502       22.6936
        502.5       22.6936
          503       22.6936
        503.5       22.6936
          504       22.6936
        504.5       22.6936
          505       22.6936
        505.5       22.6936
          506       22.6936
        506.5       22.6936
          507       22.6936
        507.5       22.6936
          508       22.6936
        508.5       22.6936
          509       22.6936
        509.5       22.6936
          510       22.6936
        510.5       22.6936
          511       22.6936
        511.5       22.6936
          512       22.6936
        512.5       22.6936
          513       22.6936
        513.5       22.6936
          514       22.6936
        514.5       22.6936
          515       22.6936
        515.5       22.6936
          516       22.6936
        516.5       22.6936
          517       22.6936
        517.5       22.6936
          518       22.6936
        518.5       22.6936
          519       22.6936
        519.5       22.6936
          520       22.6936
        520.5       22.6936
          521       22.6936
        521.5       22.6936
          522       22.6936
        522.5       22.6936
          523       22.6936
        523.5       22.6936
          524       22.6936
        524.5       22.6936
          525       22.6936
        525.5       22.6936
          526       22.6936
        526.5       22.6936
          527       22.6936
        527.5       22.6936
          528       22.6936
        528.5       22.6936
          529       22.6936
        529.5       22.6936
          530       22.6936
        530.5       22.6936
          531       22.6936
        531.5       22.6936
          532       22.6936
        532.5       22.6936
          533       22.6936
        533.5       22.6936
          534       22.6936