# Probe 0 (0.05 0.05 0.005)
#       Probe             0
#        Time
          0.5   0.000955221
            1   0.000955221
          1.5   0.000955221
            2   0.000955221
          2.5   0.000955221
            3   0.000955221
          3.5   0.000955221
            4   0.000955221
          4.5   0.000955221
            5   0.000955221
          5.5   0.000955221
            6   0.000955221
          6.5   0.000955221
            7   0.000955221
          7.5   0.000955221
            8   0.000955221
          8.5   0.000955221
            9   0.000955221
          9.5   0.000955221
           10   0.000955221
         10.5   0.000955221
           11   0.000955221
         11.5   0.000955221
           12   0.000955221
         12.5   0.000955221
           13   0.000955221
         13.5   0.000955221
           14   0.000955221
         14.5   0.000955221
           15   0.000955221
         15.5   0.000955221
           16   0.000955221
         16.5   0.000955221
           17   0.000955221
         17.5   0.000955221
           18   0.000955221
         18.5   0.000955221
           19   0.000955221
         19.5   0.000955221
           20   0.000955221
         20.5   0.000955221
           21   0.000955221
         21.5   0.000955221
           22   0.000955221
         22.5   0.000955221
           23   0.000955221
         23.5   0.000955221
           24   0.000955221
         24.5   0.000955221
           25   0.000955221
         25.5   0.000955221
           26   0.000955221
         26.5   0.000955221
           27   0.000955221
         27.5   0.000955221
           28   0.000955221
         28.5   0.000955221
           29   0.000955221
         29.5   0.000955221
           30   0.000955221
         30.5   0.000955221
           31   0.000955221
         31.5   0.000955221
           32   0.000955221
         32.5   0.000955221
           33   0.000955221
         33.5   0.000955221
           34   0.000955221
         34.5   0.000955221
           35   0.000955221
         35.5   0.000955221
           36   0.000955221
         36.5   0.000955221
           37   0.000955221
         37.5   0.000955221
           38   0.000955221
         38.5   0.000955221
           39   0.000955221
         39.5   0.000955221
           40   0.000955221
         40.5   0.000955221
           41   0.000955221
         41.5   0.000955221
           42   0.000955221
         42.5   0.000955221
           43   0.000955221
         43.5   0.000955221
           44   0.000955221
         44.5   0.000955221
           45   0.000955221
         45.5   0.000955221
           46   0.000955221
         46.5   0.000955221
           47   0.000955221
         47.5   0.000955221
           48   0.000955221
         48.5   0.000955221
           49   0.000955221
         49.5   0.000955221
           50   0.000955221
         50.5   0.000955221
           51   0.000955221
         51.5   0.000955221
           52   0.000955221
         52.5   0.000955221
           53   0.000955221
         53.5   0.000955221
           54   0.000955221
         54.5   0.000955221
           55   0.000955221
         55.5   0.000955221
           56   0.000955221
         56.5   0.000955221
           57   0.000955221
         57.5   0.000955221
           58   0.000955221
         58.5   0.000955221
           59   0.000955221
         59.5   0.000955221
           60   0.000955221
         60.5   0.000955221
           61   0.000955221
         61.5   0.000955221
           62   0.000955221
         62.5   0.000955221
           63   0.000955221
         63.5   0.000955221
           64   0.000955221
         64.5   0.000955221
           65   0.000955221
         65.5   0.000955221
           66   0.000955221
         66.5   0.000955221
           67   0.000955221
         67.5   0.000955221
           68   0.000955221
         68.5   0.000955221
           69   0.000955221
         69.5   0.000955221
           70   0.000955221
         70.5   0.000955221
           71   0.000955221
         71.5   0.000955221
           72   0.000955221
         72.5   0.000955221
           73   0.000955221
         73.5   0.000955221
           74   0.000955221
         74.5   0.000955221
           75   0.000955221
         75.5   0.000955221
           76   0.000955221
         76.5   0.000955221
           77   0.000955221
         77.5   0.000955221
           78   0.000955221
         78.5   0.000955221
           79   0.000955221
         79.5   0.000955221
           80   0.000955221
         80.5   0.000955221
           81   0.000955221
         81.5   0.000955221
           82   0.000955221
         82.5   0.000955221
           83   0.000955221
         83.5   0.000955221
           84   0.000955221
         84.5   0.000955221
           85   0.000955221
         85.5   0.000955221
           86   0.000955221
         86.5   0.000955221
           87   0.000955221
         87.5   0.000955221
           88   0.000955221
         88.5   0.000955221
           89   0.000955221
         89.5   0.000955221
           90   0.000955221
         90.5   0.000955221
           91   0.000955221
         91.5   0.000955221
           92   0.000955221
         92.5   0.000955221
           93   0.000955221
         93.5   0.000955221
           94   0.000955221
         94.5   0.000955221
           95   0.000955221
         95.5   0.000955221
           96   0.000955221
         96.5   0.000955221
           97   0.000955221
         97.5   0.000955221
           98   0.000955221
         98.5   0.000955221
           99   0.000955221
         99.5   0.000955221
          100   0.000955221
        100.5   0.000955221
          101   0.000955221
        101.5   0.000955221
          102   0.000955221
        102.5   0.000955221
          103   0.000955221
        103.5   0.000955221
          104   0.000955221
        104.5   0.000955221
          105   0.000955221
        105.5   0.000955221
          106   0.000955221
        106.5   0.000955221
          107   0.000955221
        107.5   0.000955221
          108   0.000955221
        108.5   0.000955221
          109   0.000955221
        109.5   0.000955221
          110   0.000955221
        110.5   0.000955221
          111   0.000955221
        111.5   0.000955221
          112   0.000955221
        112.5   0.000955221
          113   0.000955221
        113.5   0.000955221
          114   0.000955221
        114.5   0.000955221
          115   0.000955221
        115.5   0.000955221
          116   0.000955221
        116.5   0.000955221
          117   0.000955221
        117.5   0.000955221
          118   0.000955221
        118.5   0.000955221
          119   0.000955221
        119.5   0.000955221
          120   0.000955221
        120.5   0.000955221
          121   0.000955221
        121.5   0.000955221
          122   0.000955221
        122.5   0.000955221
          123   0.000955221
        123.5   0.000955221
          124   0.000955221
        124.5   0.000955221
          125   0.000955221
        125.5   0.000955221
          126   0.000955221
        126.5   0.000955221
          127   0.000955221
        127.5   0.000955221
          128   0.000955221
        128.5   0.000955221
          129   0.000955221
        129.5   0.000955221
          130   0.000955221
        130.5   0.000955221
          131   0.000955221
        131.5   0.000955221
          132   0.000955221
        132.5   0.000955221
          133   0.000955221
        133.5   0.000955221
          134   0.000955221
        134.5   0.000955221
          135   0.000955221
        135.5   0.000955221
          136   0.000955221
        136.5   0.000955221
          137   0.000955221
        137.5   0.000955221
          138   0.000955221
        138.5   0.000955221
          139   0.000955221
        139.5   0.000955221
          140   0.000955221
        140.5   0.000955221
          141   0.000955221
        141.5   0.000955221
          142   0.000955221
        142.5   0.000955221
          143   0.000955221
        143.5   0.000955221
          144   0.000955221
        144.5   0.000955221
          145   0.000955221
        145.5   0.000955221
          146   0.000955221
        146.5   0.000955221
          147   0.000955221
        147.5   0.000955221
          148   0.000955221
        148.5   0.000955221
          149   0.000955221
        149.5   0.000955221
          150   0.000955221
        150.5   0.000955221
          151   0.000955221
        151.5   0.000955221
          152   0.000955221
        152.5   0.000955221
          153   0.000955221
        153.5   0.000955221
          154   0.000955221
        154.5   0.000955221
          155   0.000955221
        155.5   0.000955221
          156   0.000955221
        156.5   0.000955221
          157   0.000955221
        157.5   0.000955221
          158   0.000955221
        158.5   0.000955221
          159   0.000955221
        159.5   0.000955221
          160   0.000955221
        160.5   0.000955221
          161   0.000955221
        161.5   0.000955221
          162   0.000955221
        162.5   0.000955221
          163   0.000955221
        163.5   0.000955221
          164   0.000955221
        164.5   0.000955221
          165   0.000955221
        165.5   0.000955221
          166   0.000955221
        166.5   0.000955221
          167   0.000955221
        167.5   0.000955221
          168   0.000955221
        168.5   0.000955221
          169   0.000955221
        169.5   0.000955221
          170   0.000955221
        170.5   0.000955221
          171   0.000955221
        171.5   0.000955221
          172   0.000955221
        172.5   0.000955221
          173   0.000955221
        173.5   0.000955221
          174   0.000955221
        174.5   0.000955221
          175   0.000955221
        175.5   0.000955221
          176   0.000955221
        176.5   0.000955221
          177   0.000955221
        177.5   0.000955221
          178   0.000955221
        178.5   0.000955221
          179   0.000955221
        179.5   0.000955221
          180   0.000955221
        180.5   0.000955221
          181   0.000955221
        181.5   0.000955221
          182   0.000955221
        182.5   0.000955221
          183   0.000955221
        183.5   0.000955221
          184   0.000955221
        184.5   0.000955221
          185   0.000955221
        185.5   0.000955221
          186   0.000955221
        186.5   0.000955221
          187   0.000955221
        187.5   0.000955221
          188   0.000955221
        188.5   0.000955221
          189   0.000955221
        189.5   0.000955221
          190   0.000955221
        190.5   0.000955221
          191   0.000955221
        191.5   0.000955221
          192   0.000955221
        192.5   0.000955221
          193   0.000955221
        193.5   0.000955221
          194   0.000955221
        194.5   0.000955221
          195   0.000955221
        195.5   0.000955221
          196   0.000955221
        196.5   0.000955221
          197   0.000955221
        197.5   0.000955221
          198   0.000955221
        198.5   0.000955221
          199   0.000955221
        199.5   0.000955221
          200   0.000955221
        200.5   0.000955221
          201   0.000955221
        201.5   0.000955221
          202   0.000955221
        202.5   0.000955221
          203   0.000955221
        203.5   0.000955221
          204   0.000955221
        204.5   0.000955221
          205   0.000955221
        205.5   0.000955221
          206   0.000955221
        206.5   0.000955221
          207   0.000955221
        207.5   0.000955221
          208   0.000955221
        208.5   0.000955221
          209   0.000955221
        209.5   0.000955221
          210   0.000955221
        210.5   0.000955221
          211   0.000955221
        211.5   0.000955221
          212   0.000955221
        212.5   0.000955221
          213   0.000955221
        213.5   0.000955221
          214   0.000955221
        214.5   0.000955221
          215   0.000955221
        215.5   0.000955221
          216   0.000955221
        216.5   0.000955221
          217   0.000955221
        217.5   0.000955221
          218   0.000955221
        218.5   0.000955221
          219   0.000955221
        219.5   0.000955221
          220   0.000955221
        220.5   0.000955221
          221   0.000955221
        221.5   0.000955221
          222   0.000955221
        222.5   0.000955221
          223   0.000955221
        223.5   0.000955221
          224   0.000955221
        224.5   0.000955221
          225   0.000955221
        225.5   0.000955221
          226   0.000955221
        226.5   0.000955221
          227   0.000955221
        227.5   0.000955221
          228   0.000955221
        228.5   0.000955221
          229   0.000955221
        229.5   0.000955221
          230   0.000955221
        230.5   0.000955221
          231   0.000955221
        231.5   0.000955221
          232   0.000955221
        232.5   0.000955221
          233   0.000955221
        233.5   0.000955221
          234   0.000955221
        234.5   0.000955221
          235   0.000955221
        235.5   0.000955221
          236   0.000955221
        236.5   0.000955221
          237   0.000955221
        237.5   0.000955221
          238   0.000955221
        238.5   0.000955221
          239   0.000955221
        239.5   0.000955221
          240   0.000955221
        240.5   0.000955221
          241   0.000955221
        241.5   0.000955221
          242   0.000955221
        242.5   0.000955221
          243   0.000955221
        243.5   0.000955221
          244   0.000955221
        244.5   0.000955221
          245   0.000955221
        245.5   0.000955221
          246   0.000955221
        246.5   0.000955221
          247   0.000955221
        247.5   0.000955221
          248   0.000955221
        248.5   0.000955221
          249   0.000955221
        249.5   0.000955221
          250   0.000955221
        250.5   0.000955221
          251   0.000955221
        251.5   0.000955221
          252   0.000955221
        252.5   0.000955221
          253   0.000955221
        253.5   0.000955221
          254   0.000955221
        254.5   0.000955221
          255   0.000955221
        255.5   0.000955221
          256   0.000955221
        256.5   0.000955221
          257   0.000955221
        257.5   0.000955221
          258   0.000955221
        258.5   0.000955221
          259   0.000955221
        259.5   0.000955221
          260   0.000955221
        260.5   0.000955221
          261   0.000955221
        261.5   0.000955221
          262   0.000955221
        262.5   0.000955221
          263   0.000955221
        263.5   0.000955221
          264   0.000955221
        264.5   0.000955221
          265   0.000955221
        265.5   0.000955221
          266   0.000955221
        266.5   0.000955221
          267   0.000955221
        267.5   0.000955221
          268   0.000955221
        268.5   0.000955221
          269   0.000955221
        269.5   0.000955221
          270   0.000955221
        270.5   0.000955221
          271   0.000955221
        271.5   0.000955221
          272   0.000955221
        272.5   0.000955221
          273   0.000955221
        273.5   0.000955221
          274   0.000955221
        274.5   0.000955221
          275   0.000955221
        275.5   0.000955221
          276   0.000955221
        276.5   0.000955221
          277   0.000955221
        277.5   0.000955221
          278   0.000955221
        278.5   0.000955221
          279   0.000955221
        279.5   0.000955221
          280   0.000955221
        280.5   0.000955221
          281   0.000955221
        281.5   0.000955221
          282   0.000955221
        282.5   0.000955221
          283   0.000955221
        283.5   0.000955221
          284   0.000955221
        284.5   0.000955221
          285   0.000955221
        285.5   0.000955221
          286   0.000955221
        286.5   0.000955221
          287   0.000955221
        287.5   0.000955221
          288   0.000955221
        288.5   0.000955221
          289   0.000955221
        289.5   0.000955221
          290   0.000955221
        290.5   0.000955221
          291   0.000955221
        291.5   0.000955221
          292   0.000955221
        292.5   0.000955221
          293   0.000955221
        293.5   0.000955221
          294   0.000955221
        294.5   0.000955221
          295   0.000955221
        295.5   0.000955221
          296   0.000955221
        296.5   0.000955221
          297   0.000955221
        297.5   0.000955221
          298   0.000955221
        298.5   0.000955221
          299   0.000955221
        299.5   0.000955221
          300   0.000955221
        300.5   0.000955221
          301   0.000955221
        301.5   0.000955221
          302   0.000955221
        302.5   0.000955221
          303   0.000955221
        303.5   0.000955221
          304   0.000955221
        304.5   0.000955221
          305   0.000955221
        305.5   0.000955221
          306   0.000955221
        306.5   0.000955221
          307   0.000955221
        307.5   0.000955221
          308   0.000955221
        308.5   0.000955221
          309   0.000955221
        309.5   0.000955221
          310   0.000955221
        310.5   0.000955221
          311   0.000955221
        311.5   0.000955221
          312   0.000955221
        312.5   0.000955221
          313   0.000955221
        313.5   0.000955221
          314   0.000955221
        314.5   0.000955221
          315   0.000955221
        315.5   0.000955221
          316   0.000955221
        316.5   0.000955221
          317   0.000955221
        317.5   0.000955221
          318   0.000955221
        318.5   0.000955221
          319   0.000955221
        319.5   0.000955221
          320   0.000955221
        320.5   0.000955221
          321   0.000955221
        321.5   0.000955221
          322   0.000955221
        322.5   0.000955221
          323   0.000955221
        323.5   0.000955221
          324   0.000955221
        324.5   0.000955221
          325   0.000955221
        325.5   0.000955221
          326   0.000955221
        326.5   0.000955221
          327   0.000955221
        327.5   0.000955221
          328   0.000955221
        328.5   0.000955221
          329   0.000955221
        329.5   0.000955221
          330   0.000955221
        330.5   0.000955221
          331   0.000955221
        331.5   0.000955221
          332   0.000955221
        332.5   0.000955221
          333   0.000955221
        333.5   0.000955221
          334   0.000955221
        334.5   0.000955221
          335   0.000955221
        335.5   0.000955221
          336   0.000955221
        336.5   0.000955221
          337   0.000955221
        337.5   0.000955221
          338   0.000955221
        338.5   0.000955221
          339   0.000955221
        339.5   0.000955221
          340   0.000955221
        340.5   0.000955221
          341   0.000955221
        341.5   0.000955221
          342   0.000955221
        342.5   0.000955221
          343   0.000955221
        343.5   0.000955221
          344   0.000955221
        344.5   0.000955221
          345   0.000955221
        345.5   0.000955221
          346   0.000955221
        346.5   0.000955221
          347   0.000955221
        347.5   0.000955221
          348   0.000955221
        348.5   0.000955221
          349   0.000955221
        349.5   0.000955221
          350   0.000955221
        350.5   0.000955221
          351   0.000955221
        351.5   0.000955221
          352   0.000955221
        352.5   0.000955221
          353   0.000955221
        353.5   0.000955221
          354   0.000955221
        354.5   0.000955221
          355   0.000955221
        355.5   0.000955221
          356   0.000955221
        356.5   0.000955221
          357   0.000955221
        357.5   0.000955221
          358   0.000955221
        358.5   0.000955221
          359   0.000955221
        359.5   0.000955221
          360   0.000955221
        360.5   0.000955221
          361   0.000955221
        361.5   0.000955221
          362   0.000955221
        362.5   0.000955221
          363   0.000955221
        363.5   0.000955221
          364   0.000955221
        364.5   0.000955221
          365   0.000955221
        365.5   0.000955221
          366   0.000955221
        366.5   0.000955221
          367   0.000955221
        367.5   0.000955221
          368   0.000955221
        368.5   0.000955221
          369   0.000955221
        369.5   0.000955221
          370   0.000955221
        370.5   0.000955221
          371   0.000955221
        371.5   0.000955221
          372   0.000955221
        372.5   0.000955221
          373   0.000955221
        373.5   0.000955221
          374   0.000955221
        374.5   0.000955221
          375   0.000955221
        375.5   0.000955221
          376   0.000955221
        376.5   0.000955221
          377   0.000955221
        377.5   0.000955221
          378   0.000955221
        378.5   0.000955221
          379   0.000955221
        379.5   0.000955221
          380   0.000955221
        380.5   0.000955221
          381   0.000955221
        381.5   0.000955221
          382   0.000955221
        382.5   0.000955221
          383   0.000955221
        383.5   0.000955221
          384   0.000955221
        384.5   0.000955221
          385   0.000955221
        385.5   0.000955221
          386   0.000955221
        386.5   0.000955221
          387   0.000955221
        387.5   0.000955221
          388   0.000955221
        388.5   0.000955221
          389   0.000955221
        389.5   0.000955221
          390   0.000955221
        390.5   0.000955221
          391   0.000955221
        391.5   0.000955221
          392   0.000955221
        392.5   0.000955221
          393   0.000955221
        393.5   0.000955221
          394   0.000955221
        394.5   0.000955221
          395   0.000955221
        395.5   0.000955221
          396   0.000955221
        396.5   0.000955221
          397   0.000955221
        397.5   0.000955221
          398   0.000955221
        398.5   0.000955221
          399   0.000955221
        399.5   0.000955221
          400   0.000955221
        400.5   0.000955221
          401   0.000955221
        401.5   0.000955221
          402   0.000955221
        402.5   0.000955221
          403   0.000955221
        403.5   0.000955221
          404   0.000955221
        404.5   0.000955221
          405   0.000955221
        405.5   0.000955221
          406   0.000955221
        406.5   0.000955221
          407   0.000955221
        407.5   0.000955221
          408   0.000955221
        408.5   0.000955221
          409   0.000955221
        409.5   0.000955221
          410   0.000955221
        410.5   0.000955221
          411   0.000955221
        411.5   0.000955221
          412   0.000955221
        412.5   0.000955221
          413   0.000955221
        413.5   0.000955221
          414   0.000955221
        414.5   0.000955221
          415   0.000955221
        415.5   0.000955221
          416   0.000955221
        416.5   0.000955221
          417   0.000955221
        417.5   0.000955221
          418   0.000955221
        418.5   0.000955221
          419   0.000955221
        419.5   0.000955221
          420   0.000955221
        420.5   0.000955221
          421   0.000955221
        421.5   0.000955221
          422   0.000955221
        422.5   0.000955221
          423   0.000955221
        423.5   0.000955221
          424   0.000955221
        424.5   0.000955221
          425   0.000955221
        425.5   0.000955221
          426   0.000955221
        426.5   0.000955221
          427   0.000955221
        427.5   0.000955221
          428   0.000955221
        428.5   0.000955221
          429   0.000955221
        429.5   0.000955221
          430   0.000955221
        430.5   0.000955221
          431   0.000955221
        431.5   0.000955221
          432   0.000955221
        432.5   0.000955221
          433   0.000955221
        433.5   0.000955221
          434   0.000955221
        434.5   0.000955221
          435   0.000955221
        435.5   0.000955221
          436   0.000955221
        436.5   0.000955221
          437   0.000955221
        437.5   0.000955221
          438   0.000955221
        438.5   0.000955221
          439   0.000955221
        439.5   0.000955221
          440   0.000955221
        440.5   0.000955221
          441   0.000955221
        441.5   0.000955221
          442   0.000955221
        442.5   0.000955221
          443   0.000955221
        443.5   0.000955221
          444   0.000955221
        444.5   0.000955221
          445   0.000955221
        445.5   0.000955221
          446   0.000955221
        446.5   0.000955221
          447   0.000955221
        447.5   0.000955221
          448   0.000955221
        448.5   0.000955221
          449   0.000955221
        449.5   0.000955221
          450   0.000955221
        450.5   0.000955221
          451   0.000955221
        451.5   0.000955221
          452   0.000955221
        452.5   0.000955221
          453   0.000955221
        453.5   0.000955221
          454   0.000955221
        454.5   0.000955221
          455   0.000955221
        455.5   0.000955221
          456   0.000955221
        456.5   0.000955221
          457   0.000955221
        457.5   0.000955221
          458   0.000955221
        458.5   0.000955221
          459   0.000955221
        459.5   0.000955221
          460   0.000955221
        460.5   0.000955221
          461   0.000955221
        461.5   0.000955221
          462   0.000955221
        462.5   0.000955221
          463   0.000955221
        463.5   0.000955221
          464   0.000955221
        464.5   0.000955221
          465   0.000955221
        465.5   0.000955221
          466   0.000955221
        466.5   0.000955221
          467   0.000955221
        467.5   0.000955221
          468   0.000955221
        468.5   0.000955221
          469   0.000955221
        469.5   0.000955221
          470   0.000955221
        470.5   0.000955221
          471   0.000955221
        471.5   0.000955221
          472   0.000955221
        472.5   0.000955221
          473   0.000955221
        473.5   0.000955221
          474   0.000955221
        474.5   0.000955221
          475   0.000955221
        475.5   0.000955221
          476   0.000955221
        476.5   0.000955221
          477   0.000955221
        477.5   0.000955221
          478   0.000955221
        478.5   0.000955221
          479   0.000955221
        479.5   0.000955221
          480   0.000955221
        480.5   0.000955221
          481   0.000955221
        481.5   0.000955221
          482   0.000955221
        482.5   0.000955221
          483   0.000955221
        483.5   0.000955221
          484   0.000955221
        484.5   0.000955221
          485   0.000955221
        485.5   0.000955221
          486   0.000955221
        486.5   0.000955221
          487   0.000955221
        487.5   0.000955221
          488   0.000955221
        488.5   0.000955221
          489   0.000955221
        489.5   0.000955221
          490   0.000955221
        490.5   0.000955221
          491   0.000955221
        491.5   0.000955221
          492   0.000955221
        492.5   0.000955221
          493   0.000955221
        493.5   0.000955221
          494   0.000955221
        494.5   0.000955221
          495   0.000955221
        495.5   0.000955221
          496   0.000955221
        496.5   0.000955221
          497   0.000955221
        497.5   0.000955221
          498   0.000955221
        498.5   0.000955221
          499   0.000955221
        499.5   0.000955221
          500   0.000955221
        500.5   0.000955221
          501   0.000955221
        501.5   0.000955221
          502   0.000955221
        502.5   0.000955221
          503   0.000955221
        503.5   0.000955221
          504   0.000955221
        504.5   0.000955221
          505   0.000955221
        505.5   0.000955221
          506   0.000955221
        506.5   0.000955221
          507   0.000955221
        507.5   0.000955221
          508   0.000955221
        508.5   0.000955221
          509   0.000955221
        509.5   0.000955221
          510   0.000955221
        510.5   0.000955221
          511   0.000955221
        511.5   0.000955221
          512   0.000955221
        512.5   0.000955221
          513   0.000955221
        513.5   0.000955221
          514   0.000955221
        514.5   0.000955221
          515   0.000955221
        515.5   0.000955221
          516   0.000955221
        516.5   0.000955221
          517   0.000955221
        517.5   0.000955221
          518   0.000955221
        518.5   0.000955221
          519   0.000955221
        519.5   0.000955221
          520   0.000955221
        520.5   0.000955221
          521   0.000955221
        521.5   0.000955221
          522   0.000955221
        522.5   0.000955221
          523   0.000955221
        523.5   0.000955221
          524   0.000955221
        524.5   0.000955221
          525   0.000955221
        525.5   0.000955221
          526   0.000955221
        526.5   0.000955221
          527   0.000955221
        527.5   0.000955221
          528   0.000955221
        528.5   0.000955221
          529   0.000955221
        529.5   0.000955221
          530   0.000955221
        530.5   0.000955221
          531   0.000955221
        531.5   0.000955221
          532   0.000955221
        532.5   0.000955221
          533   0.000955221
        533.5   0.000955221
          534   0.000955221