# Probe 0 (0.05 0.05 0.005)
#       Probe             0
#        Time
          0.5       23.6936
            1       23.6936
          1.5       23.6936
            2       23.6936
          2.5       23.6936
            3       23.6936
          3.5       23.6936
            4       23.6936
          4.5       23.6936
            5       23.6936
          5.5       23.6936
            6       23.6936
          6.5       23.6936
            7       23.6936
          7.5       23.6936
            8       23.6936
          8.5       23.6936
            9       23.6936
          9.5       23.6936
           10       23.6936
         10.5       23.6936
           11       23.6936
         11.5       23.6936
           12       23.6936
         12.5       23.6936
           13       23.6936
         13.5       23.6936
           14       23.6936
         14.5       23.6936
           15       23.6936
         15.5       23.6936
           16       23.6936
         16.5       23.6936
           17       23.6936
         17.5       23.6936
           18       23.6936
         18.5       23.6936
           19       23.6936
         19.5       23.6936
           20       23.6936
         20.5       23.6936
           21       23.6936
         21.5       23.6936
           22       23.6936
         22.5       23.6936
           23       23.6936
         23.5       23.6936
           24       23.6936
         24.5       23.6936
           25       23.6936
         25.5       23.6936
           26       23.6936
         26.5       23.6936
           27       23.6936
         27.5       23.6936
           28       23.6936
         28.5       23.6936
           29       23.6936
         29.5       23.6936
           30       23.6936
         30.5       23.6936
           31       23.6936
         31.5       23.6936
           32       23.6936
         32.5       23.6936
           33       23.6936
         33.5       23.6936
           34       23.6936
         34.5       23.6936
           35       23.6936
         35.5       23.6936
           36       23.6936
         36.5       23.6936
           37       23.6936
         37.5       23.6936
           38       23.6936
         38.5       23.6936
           39       23.6936
         39.5       23.6936
           40       23.6936
         40.5       23.6936
           41       23.6936
         41.5       23.6936
           42       23.6936
         42.5       23.6936
           43       23.6936
         43.5       23.6936
           44       23.6936
         44.5       23.6936
           45       23.6936
         45.5       23.6936
           46       23.6936
         46.5       23.6936
           47       23.6936
         47.5       23.6936
           48       23.6936
         48.5       23.6936
           49       23.6936
         49.5       23.6936
           50       23.6936
         50.5       23.6936
           51       23.6936
         51.5       23.6936
           52       23.6936
         52.5       23.6936
           53       23.6936
         53.5       23.6936
           54       23.6936
         54.5       23.6936
           55       23.6936
         55.5       23.6936
           56       23.6936
         56.5       23.6936
           57       23.6936
         57.5       23.6936
           58       23.6936
         58.5       23.6936
           59       23.6936
         59.5       23.6936
           60       23.6936
         60.5       23.6936
           61       23.6936
         61.5       23.6936
           62       23.6936
         62.5       23.6936
           63       23.6936
         63.5       23.6936
           64       23.6936
         64.5       23.6936
           65       23.6936
         65.5       23.6936
           66       23.6936
         66.5       23.6936
           67       23.6936
         67.5       23.6936
           68       23.6936
         68.5       23.6936
           69       23.6936
         69.5       23.6936
           70       23.6936
         70.5       23.6936
           71       23.6936
         71.5       23.6936
           72       23.6936
         72.5       23.6936
           73       23.6936
         73.5       23.6936
           74       23.6936
         74.5       23.6936
           75       23.6936
         75.5       23.6936
           76       23.6936
         76.5       23.6936
           77       23.6936
         77.5       23.6936
           78       23.6936
         78.5       23.6936
           79       23.6936
         79.5       23.6936
           80       23.6936
         80.5       23.6936
           81       23.6936
         81.5       23.6936
           82       23.6936
         82.5       23.6936
           83       23.6936
         83.5       23.6936
           84       23.6936
         84.5       23.6936
           85       23.6936
         85.5       23.6936
           86       23.6936
         86.5       23.6936
           87       23.6936
         87.5       23.6936
           88       23.6936
         88.5       23.6936
           89       23.6936
         89.5       23.6936
           90       23.6936
         90.5       23.6936
           91       23.6936
         91.5       23.6936
           92       23.6936
         92.5       23.6936
           93       23.6936
         93.5       23.6936
           94       23.6936
         94.5       23.6936
           95       23.6936
         95.5       23.6936
           96       23.6936
         96.5       23.6936
           97       23.6936
         97.5       23.6936
           98       23.6936
         98.5       23.6936
           99       23.6936
         99.5       23.6936
          100       23.6936
        100.5       23.6936
          101       23.6936
        101.5       23.6936
          102       23.6936
        102.5       23.6936
          103       23.6936
        103.5       23.6936
          104       23.6936
        104.5       23.6936
          105       23.6936
        105.5       23.6936
          106       23.6936
        106.5       23.6936
          107       23.6936
        107.5       23.6936
          108       23.6936
        108.5       23.6936
          109       23.6936
        109.5       23.6936
          110       23.6936
        110.5       23.6936
          111       23.6936
        111.5       23.6936
          112       23.6936
        112.5       23.6936
          113       23.6936
        113.5       23.6936
          114       23.6936
        114.5       23.6936
          115       23.6936
        115.5       23.6936
          116       23.6936
        116.5       23.6936
          117       23.6936
        117.5       23.6936
          118       23.6936
        118.5       23.6936
          119       23.6936
        119.5       23.6936
          120       23.6936
        120.5       23.6936
          121       23.6936
        121.5       23.6936
          122       23.6936
        122.5       23.6936
          123       23.6936
        123.5       23.6936
          124       23.6936
        124.5       23.6936
          125       23.6936
        125.5       23.6936
          126       23.6936
        126.5       23.6936
          127       23.6936
        127.5       23.6936
          128       23.6936
        128.5       23.6936
          129       23.6936
        129.5       23.6936
          130       23.6936
        130.5       23.6936
          131       23.6936
        131.5       23.6936
          132       23.6936
        132.5       23.6936
          133       23.6936
        133.5       23.6936
          134       23.6936
        134.5       23.6936
          135       23.6936
        135.5       23.6936
          136       23.6936
        136.5       23.6936
          137       23.6936
        137.5       23.6936
          138       23.6936
        138.5       23.6936
          139       23.6936
        139.5       23.6936
          140       23.6936
        140.5       23.6936
          141       23.6936
        141.5       23.6936
          142       23.6936
        142.5       23.6936
          143       23.6936
        143.5       23.6936
          144       23.6936
        144.5       23.6936
          145       23.6936
        145.5       23.6936
          146       23.6936
        146.5       23.6936
          147       23.6936
        147.5       23.6936
          148       23.6936
        148.5       23.6936
          149       23.6936
        149.5       23.6936
          150       23.6936
        150.5       23.6936
          151       23.6936
        151.5       23.6936
          152       23.6936
        152.5       23.6936
          153       23.6936
        153.5       23.6936
          154       23.6936
        154.5       23.6936
          155       23.6936
        155.5       23.6936
          156       23.6936
        156.5       23.6936
          157       23.6936
        157.5       23.6936
          158       23.6936
        158.5       23.6936
          159       23.6936
        159.5       23.6936
          160       23.6936
        160.5       23.6936
          161       23.6936
        161.5       23.6936
          162       23.6936
        162.5       23.6936
          163       23.6936
        163.5       23.6936
          164       23.6936
        164.5       23.6936
          165       23.6936
        165.5       23.6936
          166       23.6936
        166.5       23.6936
          167       23.6936
        167.5       23.6936
          168       23.6936
        168.5       23.6936
          169       23.6936
        169.5       23.6936
          170       23.6936
        170.5       23.6936
          171       23.6936
        171.5       23.6936
          172       23.6936
        172.5       23.6936
          173       23.6936
        173.5       23.6936
          174       23.6936
        174.5       23.6936
          175       23.6936
        175.5       23.6936
          176       23.6936
        176.5       23.6936
          177       23.6936
        177.5       23.6936
          178       23.6936
        178.5       23.6936
          179       23.6936
        179.5       23.6936
          180       23.6936
        180.5       23.6936
          181       23.6936
        181.5       23.6936
          182       23.6936
        182.5       23.6936
          183       23.6936
        183.5       23.6936
          184       23.6936
        184.5       23.6936
          185       23.6936
        185.5       23.6936
          186       23.6936
        186.5       23.6936
          187       23.6936
        187.5       23.6936
          188       23.6936
        188.5       23.6936
          189       23.6936
        189.5       23.6936
          190       23.6936
        190.5       23.6936
          191       23.6936
        191.5       23.6936
          192       23.6936
        192.5       23.6936
          193       23.6936
        193.5       23.6936
          194       23.6936
        194.5       23.6936
          195       23.6936
        195.5       23.6936
          196       23.6936
        196.5       23.6936
          197       23.6936
        197.5       23.6936
          198       23.6936
        198.5       23.6936
          199       23.6936
        199.5       23.6936
          200       23.6936
        200.5       23.6936
          201       23.6936
        201.5       23.6936
          202       23.6936
        202.5       23.6936
          203       23.6936
        203.5       23.6936
          204       23.6936
        204.5       23.6936
          205       23.6936
        205.5       23.6936
          206       23.6936
        206.5       23.6936
          207       23.6936
        207.5       23.6936
          208       23.6936
        208.5       23.6936
          209       23.6936
        209.5       23.6936
          210       23.6936
        210.5       23.6936
          211       23.6936
        211.5       23.6936
          212       23.6936
        212.5       23.6936
          213       23.6936
        213.5       23.6936
          214       23.6936
        214.5       23.6936
          215       23.6936
        215.5       23.6936
          216       23.6936
        216.5       23.6936
          217       23.6936
        217.5       23.6936
          218       23.6936
        218.5       23.6936
          219       23.6936
        219.5       23.6936
          220       23.6936
        220.5       23.6936
          221       23.6936
        221.5       23.6936
          222       23.6936
        222.5       23.6936
          223       23.6936
        223.5       23.6936
          224       23.6936
        224.5       23.6936
          225       23.6936
        225.5       23.6936
          226       23.6936
        226.5       23.6936
          227       23.6936
        227.5       23.6936
          228       23.6936
        228.5       23.6936
          229       23.6936
        229.5       23.6936
          230       23.6936
        230.5       23.6936
          231       23.6936
        231.5       23.6936
          232       23.6936
        232.5       23.6936
          233       23.6936
        233.5       23.6936
          234       23.6936
        234.5       23.6936
          235       23.6936
        235.5       23.6936
          236       23.6936
        236.5       23.6936
          237       23.6936
        237.5       23.6936
          238       23.6936
        238.5       23.6936
          239       23.6936
        239.5       23.6936
          240       23.6936
        240.5       23.6936
          241       23.6936
        241.5       23.6936
          242       23.6936
        242.5       23.6936
          243       23.6936
        243.5       23.6936
          244       23.6936
        244.5       23.6936
          245       23.6936
        245.5       23.6936
          246       23.6936
        246.5       23.6936
          247       23.6936
        247.5       23.6936
          248       23.6936
        248.5       23.6936
          249       23.6936
        249.5       23.6936
          250       23.6936
        250.5       23.6936
          251       23.6936
        251.5       23.6936
          252       23.6936
        252.5       23.6936
          253       23.6936
        253.5       23.6936
          254       23.6936
        254.5       23.6936
          255       23.6936
        255.5       23.6936
          256       23.6936
        256.5       23.6936
          257       23.6936
        257.5       23.6936
          258       23.6936
        258.5       23.6936
          259       23.6936
        259.5       23.6936
          260       23.6936
        260.5       23.6936
          261       23.6936
        261.5       23.6936
          262       23.6936
        262.5       23.6936
          263       23.6936
        263.5       23.6936
          264       23.6936
        264.5       23.6936
          265       23.6936
        265.5       23.6936
          266       23.6936
        266.5       23.6936
          267       23.6936
        267.5       23.6936
          268       23.6936
        268.5       23.6936
          269       23.6936
        269.5       23.6936
          270       23.6936
        270.5       23.6936
          271       23.6936
        271.5       23.6936
          272       23.6936
        272.5       23.6936
          273       23.6936
        273.5       23.6936
          274       23.6936
        274.5       23.6936
          275       23.6936
        275.5       23.6936
          276       23.6936
        276.5       23.6936
          277       23.6936
        277.5       23.6936
          278       23.6936
        278.5       23.6936
          279       23.6936
        279.5       23.6936
          280       23.6936
        280.5       23.6936
          281       23.6936
        281.5       23.6936
          282       23.6936
        282.5       23.6936
          283       23.6936
        283.5       23.6936
          284       23.6936
        284.5       23.6936
          285       23.6936
        285.5       23.6936
          286       23.6936
        286.5       23.6936
          287       23.6936
        287.5       23.6936
          288       23.6936
        288.5       23.6936
          289       23.6936
        289.5       23.6936
          290       23.6936
        290.5       23.6936
          291       23.6936
        291.5       23.6936
          292       23.6936
        292.5       23.6936
          293       23.6936
        293.5       23.6936
          294       23.6936
        294.5       23.6936
          295       23.6936
        295.5       23.6936
          296       23.6936
        296.5       23.6936
          297       23.6936
        297.5       23.6936
          298       23.6936
        298.5       23.6936
          299       23.6936
        299.5       23.6936
          300       23.6936
        300.5       23.6936
          301       23.6936
        301.5       23.6936
          302       23.6936
        302.5       23.6936
          303       23.6936
        303.5       23.6936
          304       23.6936
        304.5       23.6936
          305       23.6936
        305.5       23.6936
          306       23.6936
        306.5       23.6936
          307       23.6936
        307.5       23.6936
          308       23.6936
        308.5       23.6936
          309       23.6936
        309.5       23.6936
          310       23.6936
        310.5       23.6936
          311       23.6936
        311.5       23.6936
          312       23.6936
        312.5       23.6936
          313       23.6936
        313.5       23.6936
          314       23.6936
        314.5       23.6936
          315       23.6936
        315.5       23.6936
          316       23.6936
        316.5       23.6936
          317       23.6936
        317.5       23.6936
          318       23.6936
        318.5       23.6936
          319       23.6936
        319.5       23.6936
          320       23.6936
        320.5       23.6936
          321       23.6936
        321.5       23.6936
          322       23.6936
        322.5       23.6936
          323       23.6936
        323.5       23.6936
          324       23.6936
        324.5       23.6936
          325       23.6936
        325.5       23.6936
          326       23.6936
        326.5       23.6936
          327       23.6936
        327.5       23.6936
          328       23.6936
        328.5       23.6936
          329       23.6936
        329.5       23.6936
          330       23.6936
        330.5       23.6936
          331       23.6936
        331.5       23.6936
          332       23.6936
        332.5       23.6936
          333       23.6936
        333.5       23.6936
          334       23.6936
        334.5       23.6936
          335       23.6936
        335.5       23.6936
          336       23.6936
        336.5       23.6936
          337       23.6936
        337.5       23.6936
          338       23.6936
        338.5       23.6936
          339       23.6936
        339.5       23.6936
          340       23.6936
        340.5       23.6936
          341       23.6936
        341.5       23.6936
          342       23.6936
        342.5       23.6936
          343       23.6936
        343.5       23.6936
          344       23.6936
        344.5       23.6936
          345       23.6936
        345.5       23.6936
          346       23.6936
        346.5       23.6936
          347       23.6936
        347.5       23.6936
          348       23.6936
        348.5       23.6936
          349       23.6936
        349.5       23.6936
          350       23.6936
        350.5       23.6936
          351       23.6936
        351.5       23.6936
          352       23.6936
        352.5       23.6936
          353       23.6936
        353.5       23.6936
          354       23.6936
        354.5       23.6936
          355       23.6936
        355.5       23.6936
          356       23.6936
        356.5       23.6936
          357       23.6936
        357.5       23.6936
          358       23.6936
        358.5       23.6936
          359       23.6936
        359.5       23.6936
          360       23.6936
        360.5       23.6936
          361       23.6936
        361.5       23.6936
          362       23.6936
        362.5       23.6936
          363       23.6936
        363.5       23.6936
          364       23.6936
        364.5       23.6936
          365       23.6936
        365.5       23.6936
          366       23.6936
        366.5       23.6936
          367       23.6936
        367.5       23.6936
          368       23.6936
        368.5       23.6936
          369       23.6936
        369.5       23.6936
          370       23.6936
        370.5       23.6936
          371       23.6936
        371.5       23.6936
          372       23.6936
        372.5       23.6936
          373       23.6936
        373.5       23.6936
          374       23.6936
        374.5       23.6936
          375       23.6936
        375.5       23.6936
          376       23.6936
        376.5       23.6936
          377       23.6936
        377.5       23.6936
          378       23.6936
        378.5       23.6936
          379       23.6936
        379.5       23.6936
          380       23.6936
        380.5       23.6936
          381       23.6936
        381.5       23.6936
          382       23.6936
        382.5       23.6936
          383       23.6936
        383.5       23.6936
          384       23.6936
        384.5       23.6936
          385       23.6936
        385.5       23.6936
          386       23.6936
        386.5       23.6936
          387       23.6936
        387.5       23.6936
          388       23.6936
        388.5       23.6936
          389       23.6936
        389.5       23.6936
          390       23.6936
        390.5       23.6936
          391       23.6936
        391.5       23.6936
          392       23.6936
        392.5       23.6936
          393       23.6936
        393.5       23.6936
          394       23.6936
        394.5       23.6936
          395       23.6936
        395.5       23.6936
          396       23.6936
        396.5       23.6936
          397       23.6936
        397.5       23.6936
          398       23.6936
        398.5       23.6936
          399       23.6936
        399.5       23.6936
          400       23.6936
        400.5       23.6936
          401       23.6936
        401.5       23.6936
          402       23.6936
        402.5       23.6936
          403       23.6936
        403.5       23.6936
          404       23.6936
        404.5       23.6936
          405       23.6936
        405.5       23.6936
          406       23.6936
        406.5       23.6936
          407       23.6936
        407.5       23.6936
          408       23.6936
        408.5       23.6936
          409       23.6936
        409.5       23.6936
          410       23.6936
        410.5       23.6936
          411       23.6936
        411.5       23.6936
          412       23.6936
        412.5       23.6936
          413       23.6936
        413.5       23.6936
          414       23.6936
        414.5       23.6936
          415       23.6936
        415.5       23.6936
          416       23.6936
        416.5       23.6936
          417       23.6936
        417.5       23.6936
          418       23.6936
        418.5       23.6936
          419       23.6936
        419.5       23.6936
          420       23.6936
        420.5       23.6936
          421       23.6936
        421.5       23.6936
          422       23.6936
        422.5       23.6936
          423       23.6936
        423.5       23.6936
          424       23.6936
        424.5       23.6936
          425       23.6936
        425.5       23.6936
          426       23.6936
        426.5       23.6936
          427       23.6936
        427.5       23.6936
          428       23.6936
        428.5       23.6936
          429       23.6936
        429.5       23.6936
          430       23.6936
        430.5       23.6936
          431       23.6936
        431.5       23.6936
          432       23.6936
        432.5       23.6936
          433       23.6936
        433.5       23.6936
          434       23.6936
        434.5       23.6936
          435       23.6936
        435.5       23.6936
          436       23.6936
        436.5       23.6936
          437       23.6936
        437.5       23.6936
          438       23.6936
        438.5       23.6936
          439       23.6936
        439.5       23.6936
          440       23.6936
        440.5       23.6936
          441       23.6936
        441.5       23.6936
          442       23.6936
        442.5       23.6936
          443       23.6936
        443.5       23.6936
          444       23.6936
        444.5       23.6936
          445       23.6936
        445.5       23.6936
          446       23.6936
        446.5       23.6936
          447       23.6936
        447.5       23.6936
          448       23.6936
        448.5       23.6936
          449       23.6936
        449.5       23.6936
          450       23.6936
        450.5       23.6936
          451       23.6936
        451.5       23.6936
          452       23.6936
        452.5       23.6936
          453       23.6936
        453.5       23.6936
          454       23.6936
        454.5       23.6936
          455       23.6936
        455.5       23.6936
          456       23.6936
        456.5       23.6936
          457       23.6936
        457.5       23.6936
          458       23.6936
        458.5       23.6936
          459       23.6936
        459.5       23.6936
          460       23.6936
        460.5       23.6936
          461       23.6936
        461.5       23.6936
          462       23.6936
        462.5       23.6936
          463       23.6936
        463.5       23.6936
          464       23.6936
        464.5       23.6936
          465       23.6936
        465.5       23.6936
          466       23.6936
        466.5       23.6936
          467       23.6936
        467.5       23.6936
          468       23.6936
        468.5       23.6936
          469       23.6936
        469.5       23.6936
          470       23.6936
        470.5       23.6936
          471       23.6936
        471.5       23.6936
          472       23.6936
        472.5       23.6936
          473       23.6936
        473.5       23.6936
          474       23.6936
        474.5       23.6936
          475       23.6936
        475.5       23.6936
          476       23.6936
        476.5       23.6936
          477       23.6936
        477.5       23.6936
          478       23.6936
        478.5       23.6936
          479       23.6936
        479.5       23.6936
          480       23.6936
        480.5       23.6936
          481       23.6936
        481.5       23.6936
          482       23.6936
        482.5       23.6936
          483       23.6936
        483.5       23.6936
          484       23.6936
        484.5       23.6936
          485       23.6936
        485.5       23.6936
          486       23.6936
        486.5       23.6936
          487       23.6936
        487.5       23.6936
          488       23.6936
        488.5       23.6936
          489       23.6936
        489.5       23.6936
          490       23.6936
        490.5       23.6936
          491       23.6936
        491.5       23.6936
          492       23.6936
        492.5       23.6936
          493       23.6936
        493.5       23.6936
          494       23.6936
        494.5       23.6936
          495       23.6936
        495.5       23.6936
          496       23.6936
        496.5       23.6936
          497       23.6936
        497.5       23.6936
          498       23.6936
        498.5       23.6936
          499       23.6936
        499.5       23.6936
          500       23.6936
        500.5       23.6936
          501       23.6936
        501.5       23.6936
          502       23.6936
        502.5       23.6936
          503       23.6936
        503.5       23.6936
          504       23.6936
        504.5       23.6936
          505       23.6936
        505.5       23.6936
          506       23.6936
        506.5       23.6936
          507       23.6936
        507.5       23.6936
          508       23.6936
        508.5       23.6936
          509       23.6936
        509.5       23.6936
          510       23.6936
        510.5       23.6936
          511       23.6936
        511.5       23.6936
          512       23.6936
        512.5       23.6936
          513       23.6936
        513.5       23.6936
          514       23.6936
        514.5       23.6936
          515       23.6936
        515.5       23.6936
          516       23.6936
        516.5       23.6936
          517       23.6936
        517.5       23.6936
          518       23.6936
        518.5       23.6936
          519       23.6936
        519.5       23.6936
          520       23.6936
        520.5       23.6936
          521       23.6936
        521.5       23.6936
          522       23.6936
        522.5       23.6936
          523       23.6936
        523.5       23.6936
          524       23.6936
        524.5       23.6936
          525       23.6936
        525.5       23.6936
          526       23.6936
        526.5       23.6936
          527       23.6936
        527.5       23.6936
          528       23.6936
        528.5       23.6936
          529       23.6936
        529.5       23.6936
          530       23.6936
        530.5       23.6936
          531       23.6936
        531.5       23.6936
          532       23.6936
        532.5       23.6936
          533       23.6936
        533.5       23.6936
          534       23.6936