# Probe 0 (0.05 0.05 0.005)
#       Probe             0
#        Time
          0.5       4.16555
            1       4.16555
          1.5       4.16555
            2       4.16555
          2.5       4.16555
            3       4.16555
          3.5       4.16555
            4       4.16555
          4.5       4.16555
            5       4.16555
          5.5       4.16555
            6       4.16555
          6.5       4.16555
            7       4.16555
          7.5       4.16555
            8       4.16555
          8.5       4.16555
            9       4.16555
          9.5       4.16555
           10       4.16555
         10.5       4.16555
           11       4.16555
         11.5       4.16555
           12       4.16555
         12.5       4.16555
           13       4.16555
         13.5       4.16555
           14       4.16555
         14.5       4.16555
           15       4.16555
         15.5       4.16555
           16       4.16555
         16.5       4.16555
           17       4.16555
         17.5       4.16555
           18       4.16555
         18.5       4.16555
           19       4.16555
         19.5       4.16555
           20       4.16555
         20.5       4.16555
           21       4.16555
         21.5       4.16555
           22       4.16555
         22.5       4.16555
           23       4.16555
         23.5       4.16555
           24       4.16555
         24.5       4.16555
           25       4.16555
         25.5       4.16555
           26       4.16555
         26.5       4.16555
           27       4.16555
         27.5       4.16555
           28       4.16555
         28.5       4.16555
           29       4.16555
         29.5       4.16555
           30       4.16555
         30.5       4.16555
           31       4.16555
         31.5       4.16555
           32       4.16555
         32.5       4.16555
           33       4.16555
         33.5       4.16555
           34       4.16555
         34.5       4.16555
           35       4.16555
         35.5       4.16555
           36       4.16555
         36.5       4.16555
           37       4.16555
         37.5       4.16555
           38       4.16555
         38.5       4.16555
           39       4.16555
         39.5       4.16555
           40       4.16555
         40.5       4.16555
           41       4.16555
         41.5       4.16555
           42       4.16555
         42.5       4.16555
           43       4.16555
         43.5       4.16555
           44       4.16555
         44.5       4.16555
           45       4.16555
         45.5       4.16555
           46       4.16555
         46.5       4.16555
           47       4.16555
         47.5       4.16555
           48       4.16555
         48.5       4.16555
           49       4.16555
         49.5       4.16555
           50       4.16555
         50.5       4.16555
           51       4.16555
         51.5       4.16555
           52       4.16555
         52.5       4.16555
           53       4.16555
         53.5       4.16555
           54       4.16555
         54.5       4.16555
           55       4.16555
         55.5       4.16555
           56       4.16555
         56.5       4.16555
           57       4.16555
         57.5       4.16555
           58       4.16555
         58.5       4.16555
           59       4.16555
         59.5       4.16555
           60       4.16555
         60.5       4.16555
           61       4.16555
         61.5       4.16555
           62       4.16555
         62.5       4.16555
           63       4.16555
         63.5       4.16555
           64       4.16555
         64.5       4.16555
           65       4.16555
         65.5       4.16555
           66       4.16555
         66.5       4.16555
           67       4.16555
         67.5       4.16555
           68       4.16555
         68.5       4.16555
           69       4.16555
         69.5       4.16555
           70       4.16555
         70.5       4.16555
           71       4.16555
         71.5       4.16555
           72       4.16555
         72.5       4.16555
           73       4.16555
         73.5       4.16555
           74       4.16555
         74.5       4.16555
           75       4.16555
         75.5       4.16555
           76       4.16555
         76.5       4.16555
           77       4.16555
         77.5       4.16555
           78       4.16555
         78.5       4.16555
           79       4.16555
         79.5       4.16555
           80       4.16555
         80.5       4.16555
           81       4.16555
         81.5       4.16555
           82       4.16555
         82.5       4.16555
           83       4.16555
         83.5       4.16555
           84       4.16555
         84.5       4.16555
           85       4.16555
         85.5       4.16555
           86       4.16555
         86.5       4.16555
           87       4.16555
         87.5       4.16555
           88       4.16555
         88.5       4.16555
           89       4.16555
         89.5       4.16555
           90       4.16555
         90.5       4.16555
           91       4.16555
         91.5       4.16555
           92       4.16555
         92.5       4.16555
           93       4.16555
         93.5       4.16555
           94       4.16555
         94.5       4.16555
           95       4.16555
         95.5       4.16555
           96       4.16555
         96.5       4.16555
           97       4.16555
         97.5       4.16555
           98       4.16555
         98.5       4.16555
           99       4.16555
         99.5       4.16555
          100       4.16555
        100.5       4.16555
          101       4.16555
        101.5       4.16555
          102       4.16555
        102.5       4.16555
          103       4.16555
        103.5       4.16555
          104       4.16555
        104.5       4.16555
          105       4.16555
        105.5       4.16555
          106       4.16555
        106.5       4.16555
          107       4.16555
        107.5       4.16555
          108       4.16555
        108.5       4.16555
          109       4.16555
        109.5       4.16555
          110       4.16555
        110.5       4.16555
          111       4.16555
        111.5       4.16555
          112       4.16555
        112.5       4.16555
          113       4.16555
        113.5       4.16555
          114       4.16555
        114.5       4.16555
          115       4.16555
        115.5       4.16555
          116       4.16555
        116.5       4.16555
          117       4.16555
        117.5       4.16555
          118       4.16555
        118.5       4.16555
          119       4.16555
        119.5       4.16555
          120       4.16555
        120.5       4.16555
          121       4.16555
        121.5       4.16555
          122       4.16555
        122.5       4.16555
          123       4.16555
        123.5       4.16555
          124       4.16555
        124.5       4.16555
          125       4.16555
        125.5       4.16555
          126       4.16555
        126.5       4.16555
          127       4.16555
        127.5       4.16555
          128       4.16555
        128.5       4.16555
          129       4.16555
        129.5       4.16555
          130       4.16555
        130.5       4.16555
          131       4.16555
        131.5       4.16555
          132       4.16555
        132.5       4.16555
          133       4.16555
        133.5       4.16555
          134       4.16555
        134.5       4.16555
          135       4.16555
        135.5       4.16555
          136       4.16555
        136.5       4.16555
          137       4.16555
        137.5       4.16555
          138       4.16555
        138.5       4.16555
          139       4.16555
        139.5       4.16555
          140       4.16555
        140.5       4.16555
          141       4.16555
        141.5       4.16555
          142       4.16555
        142.5       4.16555
          143       4.16555
        143.5       4.16555
          144       4.16555
        144.5       4.16555
          145       4.16555
        145.5       4.16555
          146       4.16555
        146.5       4.16555
          147       4.16555
        147.5       4.16555
          148       4.16555
        148.5       4.16555
          149       4.16555
        149.5       4.16555
          150       4.16555
        150.5       4.16555
          151       4.16555
        151.5       4.16555
          152       4.16555
        152.5       4.16555
          153       4.16555
        153.5       4.16555
          154       4.16555
        154.5       4.16555
          155       4.16555
        155.5       4.16555
          156       4.16555
        156.5       4.16555
          157       4.16555
        157.5       4.16555
          158       4.16555
        158.5       4.16555
          159       4.16555
        159.5       4.16555
          160       4.16555
        160.5       4.16555
          161       4.16555
        161.5       4.16555
          162       4.16555
        162.5       4.16555
          163       4.16555
        163.5       4.16555
          164       4.16555
        164.5       4.16555
          165       4.16555
        165.5       4.16555
          166       4.16555
        166.5       4.16555
          167       4.16555
        167.5       4.16555
          168       4.16555
        168.5       4.16555
          169       4.16555
        169.5       4.16555
          170       4.16555
        170.5       4.16555
          171       4.16555
        171.5       4.16555
          172       4.16555
        172.5       4.16555
          173       4.16555
        173.5       4.16555
          174       4.16555
        174.5       4.16555
          175       4.16555
        175.5       4.16555
          176       4.16555
        176.5       4.16555
          177       4.16555
        177.5       4.16555
          178       4.16555
        178.5       4.16555
          179       4.16555
        179.5       4.16555
          180       4.16555
        180.5       4.16555
          181       4.16555
        181.5       4.16555
          182       4.16555
        182.5       4.16555
          183       4.16555
        183.5       4.16555
          184       4.16555
        184.5       4.16555
          185       4.16555
        185.5       4.16555
          186       4.16555
        186.5       4.16555
          187       4.16555
        187.5       4.16555
          188       4.16555
        188.5       4.16555
          189       4.16555
        189.5       4.16555
          190       4.16555
        190.5       4.16555
          191       4.16555
        191.5       4.16555
          192       4.16555
        192.5       4.16555
          193       4.16555
        193.5       4.16555
          194       4.16555
        194.5       4.16555
          195       4.16555
        195.5       4.16555
          196       4.16555
        196.5       4.16555
          197       4.16555
        197.5       4.16555
          198       4.16555
        198.5       4.16555
          199       4.16555
        199.5       4.16555
          200       4.16555
        200.5       4.16555
          201       4.16555
        201.5       4.16555
          202       4.16555
        202.5       4.16555
          203       4.16555
        203.5       4.16555
          204       4.16555
        204.5       4.16555
          205       4.16555
        205.5       4.16555
          206       4.16555
        206.5       4.16555
          207       4.16555
        207.5       4.16555
          208       4.16555
        208.5       4.16555
          209       4.16555
        209.5       4.16555
          210       4.16555
        210.5       4.16555
          211       4.16555
        211.5       4.16555
          212       4.16555
        212.5       4.16555
          213       4.16555
        213.5       4.16555
          214       4.16555
        214.5       4.16555
          215       4.16555
        215.5       4.16555
          216       4.16555
        216.5       4.16555
          217       4.16555
        217.5       4.16555
          218       4.16555
        218.5       4.16555
          219       4.16555
        219.5       4.16555
          220       4.16555
        220.5       4.16555
          221       4.16555
        221.5       4.16555
          222       4.16555
        222.5       4.16555
          223       4.16555
        223.5       4.16555
          224       4.16555
        224.5       4.16555
          225       4.16555
        225.5       4.16555
          226       4.16555
        226.5       4.16555
          227       4.16555
        227.5       4.16555
          228       4.16555
        228.5       4.16555
          229       4.16555
        229.5       4.16555
          230       4.16555
        230.5       4.16555
          231       4.16555
        231.5       4.16555
          232       4.16555
        232.5       4.16555
          233       4.16555
        233.5       4.16555
          234       4.16555
        234.5       4.16555
          235       4.16555
        235.5       4.16555
          236       4.16555
        236.5       4.16555
          237       4.16555
        237.5       4.16555
          238       4.16555
        238.5       4.16555
          239       4.16555
        239.5       4.16555
          240       4.16555
        240.5       4.16555
          241       4.16555
        241.5       4.16555
          242       4.16555
        242.5       4.16555
          243       4.16555
        243.5       4.16555
          244       4.16555
        244.5       4.16555
          245       4.16555
        245.5       4.16555
          246       4.16555
        246.5       4.16555
          247       4.16555
        247.5       4.16555
          248       4.16555
        248.5       4.16555
          249       4.16555
        249.5       4.16555
          250       4.16555
        250.5       4.16555
          251       4.16555
        251.5       4.16555
          252       4.16555
        252.5       4.16555
          253       4.16555
        253.5       4.16555
          254       4.16555
        254.5       4.16555
          255       4.16555
        255.5       4.16555
          256       4.16555
        256.5       4.16555
          257       4.16555
        257.5       4.16555
          258       4.16555
        258.5       4.16555
          259       4.16555
        259.5       4.16555
          260       4.16555
        260.5       4.16555
          261       4.16555
        261.5       4.16555
          262       4.16555
        262.5       4.16555
          263       4.16555
        263.5       4.16555
          264       4.16555
        264.5       4.16555
          265       4.16555
        265.5       4.16555
          266       4.16555
        266.5       4.16555
          267       4.16555
        267.5       4.16555
          268       4.16555
        268.5       4.16555
          269       4.16555
        269.5       4.16555
          270       4.16555
        270.5       4.16555
          271       4.16555
        271.5       4.16555
          272       4.16555
        272.5       4.16555
          273       4.16555
        273.5       4.16555
          274       4.16555
        274.5       4.16555
          275       4.16555
        275.5       4.16555
          276       4.16555
        276.5       4.16555
          277       4.16555
        277.5       4.16555
          278       4.16555
        278.5       4.16555
          279       4.16555
        279.5       4.16555
          280       4.16555
        280.5       4.16555
          281       4.16555
        281.5       4.16555
          282       4.16555
        282.5       4.16555
          283       4.16555
        283.5       4.16555
          284       4.16555
        284.5       4.16555
          285       4.16555
        285.5       4.16555
          286       4.16555
        286.5       4.16555
          287       4.16555
        287.5       4.16555
          288       4.16555
        288.5       4.16555
          289       4.16555
        289.5       4.16555
          290       4.16555
        290.5       4.16555
          291       4.16555
        291.5       4.16555
          292       4.16555
        292.5       4.16555
          293       4.16555
        293.5       4.16555
          294       4.16555
        294.5       4.16555
          295       4.16555
        295.5       4.16555
          296       4.16555
        296.5       4.16555
          297       4.16555
        297.5       4.16555
          298       4.16555
        298.5       4.16555
          299       4.16555
        299.5       4.16555
          300       4.16555
        300.5       4.16555
          301       4.16555
        301.5       4.16555
          302       4.16555
        302.5       4.16555
          303       4.16555
        303.5       4.16555
          304       4.16555
        304.5       4.16555
          305       4.16555
        305.5       4.16555
          306       4.16555
        306.5       4.16555
          307       4.16555
        307.5       4.16555
          308       4.16555
        308.5       4.16555
          309       4.16555
        309.5       4.16555
          310       4.16555
        310.5       4.16555
          311       4.16555
        311.5       4.16555
          312       4.16555
        312.5       4.16555
          313       4.16555
        313.5       4.16555
          314       4.16555
        314.5       4.16555
          315       4.16555
        315.5       4.16555
          316       4.16555
        316.5       4.16555
          317       4.16555
        317.5       4.16555
          318       4.16555
        318.5       4.16555
          319       4.16555
        319.5       4.16555
          320       4.16555
        320.5       4.16555
          321       4.16555
        321.5       4.16555
          322       4.16555
        322.5       4.16555
          323       4.16555
        323.5       4.16555
          324       4.16555
        324.5       4.16555
          325       4.16555
        325.5       4.16555
          326       4.16555
        326.5       4.16555
          327       4.16555
        327.5       4.16555
          328       4.16555
        328.5       4.16555
          329       4.16555
        329.5       4.16555
          330       4.16555
        330.5       4.16555
          331       4.16555
        331.5       4.16555
          332       4.16555
        332.5       4.16555
          333       4.16555
        333.5       4.16555
          334       4.16555
        334.5       4.16555
          335       4.16555
        335.5       4.16555
          336       4.16555
        336.5       4.16555
          337       4.16555
        337.5       4.16555
          338       4.16555
        338.5       4.16555
          339       4.16555
        339.5       4.16555
          340       4.16555
        340.5       4.16555
          341       4.16555
        341.5       4.16555
          342       4.16555
        342.5       4.16555
          343       4.16555
        343.5       4.16555
          344       4.16555
        344.5       4.16555
          345       4.16555
        345.5       4.16555
          346       4.16555
        346.5       4.16555
          347       4.16555
        347.5       4.16555
          348       4.16555
        348.5       4.16555
          349       4.16555
        349.5       4.16555
          350       4.16555
        350.5       4.16555
          351       4.16555
        351.5       4.16555
          352       4.16555
        352.5       4.16555
          353       4.16555
        353.5       4.16555
          354       4.16555
        354.5       4.16555
          355       4.16555
        355.5       4.16555
          356       4.16555
        356.5       4.16555
          357       4.16555
        357.5       4.16555
          358       4.16555
        358.5       4.16555
          359       4.16555
        359.5       4.16555
          360       4.16555
        360.5       4.16555
          361       4.16555
        361.5       4.16555
          362       4.16555
        362.5       4.16555
          363       4.16555
        363.5       4.16555
          364       4.16555
        364.5       4.16555
          365       4.16555
        365.5       4.16555
          366       4.16555
        366.5       4.16555
          367       4.16555
        367.5       4.16555
          368       4.16555
        368.5       4.16555
          369       4.16555
        369.5       4.16555
          370       4.16555
        370.5       4.16555
          371       4.16555
        371.5       4.16555
          372       4.16555
        372.5       4.16555
          373       4.16555
        373.5       4.16555
          374       4.16555
        374.5       4.16555
          375       4.16555
        375.5       4.16555
          376       4.16555
        376.5       4.16555
          377       4.16555
        377.5       4.16555
          378       4.16555
        378.5       4.16555
          379       4.16555
        379.5       4.16555
          380       4.16555
        380.5       4.16555
          381       4.16555
        381.5       4.16555
          382       4.16555
        382.5       4.16555
          383       4.16555
        383.5       4.16555
          384       4.16555
        384.5       4.16555
          385       4.16555
        385.5       4.16555
          386       4.16555
        386.5       4.16555
          387       4.16555
        387.5       4.16555
          388       4.16555
        388.5       4.16555
          389       4.16555
        389.5       4.16555
          390       4.16555
        390.5       4.16555
          391       4.16555
        391.5       4.16555
          392       4.16555
        392.5       4.16555
          393       4.16555
        393.5       4.16555
          394       4.16555
        394.5       4.16555
          395       4.16555
        395.5       4.16555
          396       4.16555
        396.5       4.16555
          397       4.16555
        397.5       4.16555
          398       4.16555
        398.5       4.16555
          399       4.16555
        399.5       4.16555
          400       4.16555
        400.5       4.16555
          401       4.16555
        401.5       4.16555
          402       4.16555
        402.5       4.16555
          403       4.16555
        403.5       4.16555
          404       4.16555
        404.5       4.16555
          405       4.16555
        405.5       4.16555
          406       4.16555
        406.5       4.16555
          407       4.16555
        407.5       4.16555
          408       4.16555
        408.5       4.16555
          409       4.16555
        409.5       4.16555
          410       4.16555
        410.5       4.16555
          411       4.16555
        411.5       4.16555
          412       4.16555
        412.5       4.16555
          413       4.16555
        413.5       4.16555
          414       4.16555
        414.5       4.16555
          415       4.16555
        415.5       4.16555
          416       4.16555
        416.5       4.16555
          417       4.16555
        417.5       4.16555
          418       4.16555
        418.5       4.16555
          419       4.16555
        419.5       4.16555
          420       4.16555
        420.5       4.16555
          421       4.16555
        421.5       4.16555
          422       4.16555
        422.5       4.16555
          423       4.16555
        423.5       4.16555
          424       4.16555
        424.5       4.16555
          425       4.16555
        425.5       4.16555
          426       4.16555
        426.5       4.16555
          427       4.16555
        427.5       4.16555
          428       4.16555
        428.5       4.16555
          429       4.16555
        429.5       4.16555
          430       4.16555
        430.5       4.16555
          431       4.16555
        431.5       4.16555
          432       4.16555
        432.5       4.16555
          433       4.16555
        433.5       4.16555
          434       4.16555
        434.5       4.16555
          435       4.16555
        435.5       4.16555
          436       4.16555
        436.5       4.16555
          437       4.16555
        437.5       4.16555
          438       4.16555
        438.5       4.16555
          439       4.16555
        439.5       4.16555
          440       4.16555
        440.5       4.16555
          441       4.16555
        441.5       4.16555
          442       4.16555
        442.5       4.16555
          443       4.16555
        443.5       4.16555
          444       4.16555
        444.5       4.16555
          445       4.16555
        445.5       4.16555
          446       4.16555
        446.5       4.16555
          447       4.16555
        447.5       4.16555
          448       4.16555
        448.5       4.16555
          449       4.16555
        449.5       4.16555
          450       4.16555
        450.5       4.16555
          451       4.16555
        451.5       4.16555
          452       4.16555
        452.5       4.16555
          453       4.16555
        453.5       4.16555
          454       4.16555
        454.5       4.16555
          455       4.16555
        455.5       4.16555
          456       4.16555
        456.5       4.16555
          457       4.16555
        457.5       4.16555
          458       4.16555
        458.5       4.16555
          459       4.16555
        459.5       4.16555
          460       4.16555
        460.5       4.16555
          461       4.16555
        461.5       4.16555
          462       4.16555
        462.5       4.16555
          463       4.16555
        463.5       4.16555
          464       4.16555
        464.5       4.16555
          465       4.16555
        465.5       4.16555
          466       4.16555
        466.5       4.16555
          467       4.16555
        467.5       4.16555
          468       4.16555
        468.5       4.16555
          469       4.16555
        469.5       4.16555
          470       4.16555
        470.5       4.16555
          471       4.16555
        471.5       4.16555
          472       4.16555
        472.5       4.16555
          473       4.16555
        473.5       4.16555
          474       4.16555
        474.5       4.16555
          475       4.16555
        475.5       4.16555
          476       4.16555
        476.5       4.16555
          477       4.16555
        477.5       4.16555
          478       4.16555
        478.5       4.16555
          479       4.16555
        479.5       4.16555
          480       4.16555
        480.5       4.16555
          481       4.16555
        481.5       4.16555
          482       4.16555
        482.5       4.16555
          483       4.16555
        483.5       4.16555
          484       4.16555
        484.5       4.16555
          485       4.16555
        485.5       4.16555
          486       4.16555
        486.5       4.16555
          487       4.16555
        487.5       4.16555
          488       4.16555
        488.5       4.16555
          489       4.16555
        489.5       4.16555
          490       4.16555
        490.5       4.16555
          491       4.16555
        491.5       4.16555
          492       4.16555
        492.5       4.16555
          493       4.16555
        493.5       4.16555
          494       4.16555
        494.5       4.16555
          495       4.16555
        495.5       4.16555
          496       4.16555
        496.5       4.16555
          497       4.16555
        497.5       4.16555
          498       4.16555
        498.5       4.16555
          499       4.16555
        499.5       4.16555
          500       4.16555
        500.5       4.16555
          501       4.16555
        501.5       4.16555
          502       4.16555
        502.5       4.16555
          503       4.16555
        503.5       4.16555
          504       4.16555
        504.5       4.16555
          505       4.16555
        505.5       4.16555
          506       4.16555
        506.5       4.16555
          507       4.16555
        507.5       4.16555
          508       4.16555
        508.5       4.16555
          509       4.16555
        509.5       4.16555
          510       4.16555
        510.5       4.16555
          511       4.16555
        511.5       4.16555
          512       4.16555
        512.5       4.16555
          513       4.16555
        513.5       4.16555
          514       4.16555
        514.5       4.16555
          515       4.16555
        515.5       4.16555
          516       4.16555
        516.5       4.16555
          517       4.16555
        517.5       4.16555
          518       4.16555
        518.5       4.16555
          519       4.16555
        519.5       4.16555
          520       4.16555
        520.5       4.16555
          521       4.16555
        521.5       4.16555
          522       4.16555
        522.5       4.16555
          523       4.16555
        523.5       4.16555
          524       4.16555
        524.5       4.16555
          525       4.16555
        525.5       4.16555
          526       4.16555
        526.5       4.16555
          527       4.16555
        527.5       4.16555
          528       4.16555
        528.5       4.16555
          529       4.16555
        529.5       4.16555
          530       4.16555
        530.5       4.16555
          531       4.16555
        531.5       4.16555
          532       4.16555
        532.5       4.16555
          533       4.16555
        533.5       4.16555
          534       4.16555