# Probe 0 (0.05 0.05 0.005)
#       Probe             0
#        Time
          0.5       14640.3
            1       14640.3
          1.5       14640.3
            2       14640.3
          2.5       14640.3
            3       14640.3
          3.5       14640.3
            4       14640.3
          4.5       14640.3
            5       14640.3
          5.5       14640.3
            6       14640.3
          6.5       14640.3
            7       14640.3
          7.5       14640.3
            8       14640.3
          8.5       14640.3
            9       14640.3
          9.5       14640.3
           10       14640.3
         10.5       14640.3
           11       14640.3
         11.5       14640.3
           12       14640.3
         12.5       14640.3
           13       14640.3
         13.5       14640.3
           14       14640.3
         14.5       14640.3
           15       14640.3
         15.5       14640.3
           16       14640.3
         16.5       14640.3
           17       14640.3
         17.5       14640.3
           18       14640.3
         18.5       14640.3
           19       14640.3
         19.5       14640.3
           20       14640.3
         20.5       14640.3
           21       14640.3
         21.5       14640.3
           22       14640.3
         22.5       14640.3
           23       14640.3
         23.5       14640.3
           24       14640.3
         24.5       14640.3
           25       14640.3
         25.5       14640.3
           26       14640.3
         26.5       14640.3
           27       14640.3
         27.5       14640.3
           28       14640.3
         28.5       14640.3
           29       14640.3
         29.5       14640.3
           30       14640.3
         30.5       14640.3
           31       14640.3
         31.5       14640.3
           32       14640.3
         32.5       14640.3
           33       14640.3
         33.5       14640.3
           34       14640.3
         34.5       14640.3
           35       14640.3
         35.5       14640.3
           36       14640.3
         36.5       14640.3
           37       14640.3
         37.5       14640.3
           38       14640.3
         38.5       14640.3
           39       14640.3
         39.5       14640.3
           40       14640.3
         40.5       14640.3
           41       14640.3
         41.5       14640.3
           42       14640.3
         42.5       14640.3
           43       14640.3
         43.5       14640.3
           44       14640.3
         44.5       14640.3
           45       14640.3
         45.5       14640.3
           46       14640.3
         46.5       14640.3
           47       14640.3
         47.5       14640.3
           48       14640.3
         48.5       14640.3
           49       14640.3
         49.5       14640.3
           50       14640.3
         50.5       14640.3
           51       14640.3
         51.5       14640.3
           52       14640.3
         52.5       14640.3
           53       14640.3
         53.5       14640.3
           54       14640.3
         54.5       14640.3
           55       14640.3
         55.5       14640.3
           56       14640.3
         56.5       14640.3
           57       14640.3
         57.5       14640.3
           58       14640.3
         58.5       14640.3
           59       14640.3
         59.5       14640.3
           60       14640.3
         60.5       14640.3
           61       14640.3
         61.5       14640.3
           62       14640.3
         62.5       14640.3
           63       14640.3
         63.5       14640.3
           64       14640.3
         64.5       14640.3
           65       14640.3
         65.5       14640.3
           66       14640.3
         66.5       14640.3
           67       14640.3
         67.5       14640.3
           68       14640.3
         68.5       14640.3
           69       14640.3
         69.5       14640.3
           70       14640.3
         70.5       14640.3
           71       14640.3
         71.5       14640.3
           72       14640.3
         72.5       14640.3
           73       14640.3
         73.5       14640.3
           74       14640.3
         74.5       14640.3
           75       14640.3
         75.5       14640.3
           76       14640.3
         76.5       14640.3
           77       14640.3
         77.5       14640.3
           78       14640.3
         78.5       14640.3
           79       14640.3
         79.5       14640.3
           80       14640.3
         80.5       14640.3
           81       14640.3
         81.5       14640.3
           82       14640.3
         82.5       14640.3
           83       14640.3
         83.5       14640.3
           84       14640.3
         84.5       14640.3
           85       14640.3
         85.5       14640.3
           86       14640.3
         86.5       14640.3
           87       14640.3
         87.5       14640.3
           88       14640.3
         88.5       14640.3
           89       14640.3
         89.5       14640.3
           90       14640.3
         90.5       14640.3
           91       14640.3
         91.5       14640.3
           92       14640.3
         92.5       14640.3
           93       14640.3
         93.5       14640.3
           94       14640.3
         94.5       14640.3
           95       14640.3
         95.5       14640.3
           96       14640.3
         96.5       14640.3
           97       14640.3
         97.5       14640.3
           98       14640.3
         98.5       14640.3
           99       14640.3
         99.5       14640.3
          100       14640.3
        100.5       14640.3
          101       14640.3
        101.5       14640.3
          102       14640.3
        102.5       14640.3
          103       14640.3
        103.5       14640.3
          104       14640.3
        104.5       14640.3
          105       14640.3
        105.5       14640.3
          106       14640.3
        106.5       14640.3
          107       14640.3
        107.5       14640.3
          108       14640.3
        108.5       14640.3
          109       14640.3
        109.5       14640.3
          110       14640.3
        110.5       14640.3
          111       14640.3
        111.5       14640.3
          112       14640.3
        112.5       14640.3
          113       14640.3
        113.5       14640.3
          114       14640.3
        114.5       14640.3
          115       14640.3
        115.5       14640.3
          116       14640.3
        116.5       14640.3
          117       14640.3
        117.5       14640.3
          118       14640.3
        118.5       14640.3
          119       14640.3
        119.5       14640.3
          120       14640.3
        120.5       14640.3
          121       14640.3
        121.5       14640.3
          122       14640.3
        122.5       14640.3
          123       14640.3
        123.5       14640.3
          124       14640.3
        124.5       14640.3
          125       14640.3
        125.5       14640.3
          126       14640.3
        126.5       14640.3
          127       14640.3
        127.5       14640.3
          128       14640.3
        128.5       14640.3
          129       14640.3
        129.5       14640.3
          130       14640.3
        130.5       14640.3
          131       14640.3
        131.5       14640.3
          132       14640.3
        132.5       14640.3
          133       14640.3
        133.5       14640.3
          134       14640.3
        134.5       14640.3
          135       14640.3
        135.5       14640.3
          136       14640.3
        136.5       14640.3
          137       14640.3
        137.5       14640.3
          138       14640.3
        138.5       14640.3
          139       14640.3
        139.5       14640.3
          140       14640.3
        140.5       14640.3
          141       14640.3
        141.5       14640.3
          142       14640.3
        142.5       14640.3
          143       14640.3
        143.5       14640.3
          144       14640.3
        144.5       14640.3
          145       14640.3
        145.5       14640.3
          146       14640.3
        146.5       14640.3
          147       14640.3
        147.5       14640.3
          148       14640.3
        148.5       14640.3
          149       14640.3
        149.5       14640.3
          150       14640.3
        150.5       14640.3
          151       14640.3
        151.5       14640.3
          152       14640.3
        152.5       14640.3
          153       14640.3
        153.5       14640.3
          154       14640.3
        154.5       14640.3
          155       14640.3
        155.5       14640.3
          156       14640.3
        156.5       14640.3
          157       14640.3
        157.5       14640.3
          158       14640.3
        158.5       14640.3
          159       14640.3
        159.5       14640.3
          160       14640.3
        160.5       14640.3
          161       14640.3
        161.5       14640.3
          162       14640.3
        162.5       14640.3
          163       14640.3
        163.5       14640.3
          164       14640.3
        164.5       14640.3
          165       14640.3
        165.5       14640.3
          166       14640.3
        166.5       14640.3
          167       14640.3
        167.5       14640.3
          168       14640.3
        168.5       14640.3
          169       14640.3
        169.5       14640.3
          170       14640.3
        170.5       14640.3
          171       14640.3
        171.5       14640.3
          172       14640.3
        172.5       14640.3
          173       14640.3
        173.5       14640.3
          174       14640.3
        174.5       14640.3
          175       14640.3
        175.5       14640.3
          176       14640.3
        176.5       14640.3
          177       14640.3
        177.5       14640.3
          178       14640.3
        178.5       14640.3
          179       14640.3
        179.5       14640.3
          180       14640.3
        180.5       14640.3
          181       14640.3
        181.5       14640.3
          182       14640.3
        182.5       14640.3
          183       14640.3
        183.5       14640.3
          184       14640.3
        184.5       14640.3
          185       14640.3
        185.5       14640.3
          186       14640.3
        186.5       14640.3
          187       14640.3
        187.5       14640.3
          188       14640.3
        188.5       14640.3
          189       14640.3
        189.5       14640.3
          190       14640.3
        190.5       14640.3
          191       14640.3
        191.5       14640.3
          192       14640.3
        192.5       14640.3
          193       14640.3
        193.5       14640.3
          194       14640.3
        194.5       14640.3
          195       14640.3
        195.5       14640.3
          196       14640.3
        196.5       14640.3
          197       14640.3
        197.5       14640.3
          198       14640.3
        198.5       14640.3
          199       14640.3
        199.5       14640.3
          200       14640.3
        200.5       14640.3
          201       14640.3
        201.5       14640.3
          202       14640.3
        202.5       14640.3
          203       14640.3
        203.5       14640.3
          204       14640.3
        204.5       14640.3
          205       14640.3
        205.5       14640.3
          206       14640.3
        206.5       14640.3
          207       14640.3
        207.5       14640.3
          208       14640.3
        208.5       14640.3
          209       14640.3
        209.5       14640.3
          210       14640.3
        210.5       14640.3
          211       14640.3
        211.5       14640.3
          212       14640.3
        212.5       14640.3
          213       14640.3
        213.5       14640.3
          214       14640.3
        214.5       14640.3
          215       14640.3
        215.5       14640.3
          216       14640.3
        216.5       14640.3
          217       14640.3
        217.5       14640.3
          218       14640.3
        218.5       14640.3
          219       14640.3
        219.5       14640.3
          220       14640.3
        220.5       14640.3
          221       14640.3
        221.5       14640.3
          222       14640.3
        222.5       14640.3
          223       14640.3
        223.5       14640.3
          224       14640.3
        224.5       14640.3
          225       14640.3
        225.5       14640.3
          226       14640.3
        226.5       14640.3
          227       14640.3
        227.5       14640.3
          228       14640.3
        228.5       14640.3
          229       14640.3
        229.5       14640.3
          230       14640.3
        230.5       14640.3
          231       14640.3
        231.5       14640.3
          232       14640.3
        232.5       14640.3
          233       14640.3
        233.5       14640.3
          234       14640.3
        234.5       14640.3
          235       14640.3
        235.5       14640.3
          236       14640.3
        236.5       14640.3
          237       14640.3
        237.5       14640.3
          238       14640.3
        238.5       14640.3
          239       14640.3
        239.5       14640.3
          240       14640.3
        240.5       14640.3
          241       14640.3
        241.5       14640.3
          242       14640.3
        242.5       14640.3
          243       14640.3
        243.5       14640.3
          244       14640.3
        244.5       14640.3
          245       14640.3
        245.5       14640.3
          246       14640.3
        246.5       14640.3
          247       14640.3
        247.5       14640.3
          248       14640.3
        248.5       14640.3
          249       14640.3
        249.5       14640.3
          250       14640.3
        250.5       14640.3
          251       14640.3
        251.5       14640.3
          252       14640.3
        252.5       14640.3
          253       14640.3
        253.5       14640.3
          254       14640.3
        254.5       14640.3
          255       14640.3
        255.5       14640.3
          256       14640.3
        256.5       14640.3
          257       14640.3
        257.5       14640.3
          258       14640.3
        258.5       14640.3
          259       14640.3
        259.5       14640.3
          260       14640.3
        260.5       14640.3
          261       14640.3
        261.5       14640.3
          262       14640.3
        262.5       14640.3
          263       14640.3
        263.5       14640.3
          264       14640.3
        264.5       14640.3
          265       14640.3
        265.5       14640.3
          266       14640.3
        266.5       14640.3
          267       14640.3
        267.5       14640.3
          268       14640.3
        268.5       14640.3
          269       14640.3
        269.5       14640.3
          270       14640.3
        270.5       14640.3
          271       14640.3
        271.5       14640.3
          272       14640.3
        272.5       14640.3
          273       14640.3
        273.5       14640.3
          274       14640.3
        274.5       14640.3
          275       14640.3
        275.5       14640.3
          276       14640.3
        276.5       14640.3
          277       14640.3
        277.5       14640.3
          278       14640.3
        278.5       14640.3
          279       14640.3
        279.5       14640.3
          280       14640.3
        280.5       14640.3
          281       14640.3
        281.5       14640.3
          282       14640.3
        282.5       14640.3
          283       14640.3
        283.5       14640.3
          284       14640.3
        284.5       14640.3
          285       14640.3
        285.5       14640.3
          286       14640.3
        286.5       14640.3
          287       14640.3
        287.5       14640.3
          288       14640.3
        288.5       14640.3
          289       14640.3
        289.5       14640.3
          290       14640.3
        290.5       14640.3
          291       14640.3
        291.5       14640.3
          292       14640.3
        292.5       14640.3
          293       14640.3
        293.5       14640.3
          294       14640.3
        294.5       14640.3
          295       14640.3
        295.5       14640.3
          296       14640.3
        296.5       14640.3
          297       14640.3
        297.5       14640.3
          298       14640.3
        298.5       14640.3
          299       14640.3
        299.5       14640.3
          300       14640.3
        300.5       14640.3
          301       14640.3
        301.5       14640.3
          302       14640.3
        302.5       14640.3
          303       14640.3
        303.5       14640.3
          304       14640.3
        304.5       14640.3
          305       14640.3
        305.5       14640.3
          306       14640.3
        306.5       14640.3
          307       14640.3
        307.5       14640.3
          308       14640.3
        308.5       14640.3
          309       14640.3
        309.5       14640.3
          310       14640.3
        310.5       14640.3
          311       14640.3
        311.5       14640.3
          312       14640.3
        312.5       14640.3
          313       14640.3
        313.5       14640.3
          314       14640.3
        314.5       14640.3
          315       14640.3
        315.5       14640.3
          316       14640.3
        316.5       14640.3
          317       14640.3
        317.5       14640.3
          318       14640.3
        318.5       14640.3
          319       14640.3
        319.5       14640.3
          320       14640.3
        320.5       14640.3
          321       14640.3
        321.5       14640.3
          322       14640.3
        322.5       14640.3
          323       14640.3
        323.5       14640.3
          324       14640.3
        324.5       14640.3
          325       14640.3
        325.5       14640.3
          326       14640.3
        326.5       14640.3
          327       14640.3
        327.5       14640.3
          328       14640.3
        328.5       14640.3
          329       14640.3
        329.5       14640.3
          330       14640.3
        330.5       14640.3
          331       14640.3
        331.5       14640.3
          332       14640.3
        332.5       14640.3
          333       14640.3
        333.5       14640.3
          334       14640.3
        334.5       14640.3
          335       14640.3
        335.5       14640.3
          336       14640.3
        336.5       14640.3
          337       14640.3
        337.5       14640.3
          338       14640.3
        338.5       14640.3
          339       14640.3
        339.5       14640.3
          340       14640.3
        340.5       14640.3
          341       14640.3
        341.5       14640.3
          342       14640.3
        342.5       14640.3
          343       14640.3
        343.5       14640.3
          344       14640.3
        344.5       14640.3
          345       14640.3
        345.5       14640.3
          346       14640.3
        346.5       14640.3
          347       14640.3
        347.5       14640.3
          348       14640.3
        348.5       14640.3
          349       14640.3
        349.5       14640.3
          350       14640.3
        350.5       14640.3
          351       14640.3
        351.5       14640.3
          352       14640.3
        352.5       14640.3
          353       14640.3
        353.5       14640.3
          354       14640.3
        354.5       14640.3
          355       14640.3
        355.5       14640.3
          356       14640.3
        356.5       14640.3
          357       14640.3
        357.5       14640.3
          358       14640.3
        358.5       14640.3
          359       14640.3
        359.5       14640.3
          360       14640.3
        360.5       14640.3
          361       14640.3
        361.5       14640.3
          362       14640.3
        362.5       14640.3
          363       14640.3
        363.5       14640.3
          364       14640.3
        364.5       14640.3
          365       14640.3
        365.5       14640.3
          366       14640.3
        366.5       14640.3
          367       14640.3
        367.5       14640.3
          368       14640.3
        368.5       14640.3
          369       14640.3
        369.5       14640.3
          370       14640.3
        370.5       14640.3
          371       14640.3
        371.5       14640.3
          372       14640.3
        372.5       14640.3
          373       14640.3
        373.5       14640.3
          374       14640.3
        374.5       14640.3
          375       14640.3
        375.5       14640.3
          376       14640.3
        376.5       14640.3
          377       14640.3
        377.5       14640.3
          378       14640.3
        378.5       14640.3
          379       14640.3
        379.5       14640.3
          380       14640.3
        380.5       14640.3
          381       14640.3
        381.5       14640.3
          382       14640.3
        382.5       14640.3
          383       14640.3
        383.5       14640.3
          384       14640.3
        384.5       14640.3
          385       14640.3
        385.5       14640.3
          386       14640.3
        386.5       14640.3
          387       14640.3
        387.5       14640.3
          388       14640.3
        388.5       14640.3
          389       14640.3
        389.5       14640.3
          390       14640.3
        390.5       14640.3
          391       14640.3
        391.5       14640.3
          392       14640.3
        392.5       14640.3
          393       14640.3
        393.5       14640.3
          394       14640.3
        394.5       14640.3
          395       14640.3
        395.5       14640.3
          396       14640.3
        396.5       14640.3
          397       14640.3
        397.5       14640.3
          398       14640.3
        398.5       14640.3
          399       14640.3
        399.5       14640.3
          400       14640.3
        400.5       14640.3
          401       14640.3
        401.5       14640.3
          402       14640.3
        402.5       14640.3
          403       14640.3
        403.5       14640.3
          404       14640.3
        404.5       14640.3
          405       14640.3
        405.5       14640.3
          406       14640.3
        406.5       14640.3
          407       14640.3
        407.5       14640.3
          408       14640.3
        408.5       14640.3
          409       14640.3
        409.5       14640.3
          410       14640.3
        410.5       14640.3
          411       14640.3
        411.5       14640.3
          412       14640.3
        412.5       14640.3
          413       14640.3
        413.5       14640.3
          414       14640.3
        414.5       14640.3
          415       14640.3
        415.5       14640.3
          416       14640.3
        416.5       14640.3
          417       14640.3
        417.5       14640.3
          418       14640.3
        418.5       14640.3
          419       14640.3
        419.5       14640.3
          420       14640.3
        420.5       14640.3
          421       14640.3
        421.5       14640.3
          422       14640.3
        422.5       14640.3
          423       14640.3
        423.5       14640.3
          424       14640.3
        424.5       14640.3
          425       14640.3
        425.5       14640.3
          426       14640.3
        426.5       14640.3
          427       14640.3
        427.5       14640.3
          428       14640.3
        428.5       14640.3
          429       14640.3
        429.5       14640.3
          430       14640.3
        430.5       14640.3
          431       14640.3
        431.5       14640.3
          432       14640.3
        432.5       14640.3
          433       14640.3
        433.5       14640.3
          434       14640.3
        434.5       14640.3
          435       14640.3
        435.5       14640.3
          436       14640.3
        436.5       14640.3
          437       14640.3
        437.5       14640.3
          438       14640.3
        438.5       14640.3
          439       14640.3
        439.5       14640.3
          440       14640.3
        440.5       14640.3
          441       14640.3
        441.5       14640.3
          442       14640.3
        442.5       14640.3
          443       14640.3
        443.5       14640.3
          444       14640.3
        444.5       14640.3
          445       14640.3
        445.5       14640.3
          446       14640.3
        446.5       14640.3
          447       14640.3
        447.5       14640.3
          448       14640.3
        448.5       14640.3
          449       14640.3
        449.5       14640.3
          450       14640.3
        450.5       14640.3
          451       14640.3
        451.5       14640.3
          452       14640.3
        452.5       14640.3
          453       14640.3
        453.5       14640.3
          454       14640.3
        454.5       14640.3
          455       14640.3
        455.5       14640.3
          456       14640.3
        456.5       14640.3
          457       14640.3
        457.5       14640.3
          458       14640.3
        458.5       14640.3
          459       14640.3
        459.5       14640.3
          460       14640.3
        460.5       14640.3
          461       14640.3
        461.5       14640.3
          462       14640.3
        462.5       14640.3
          463       14640.3
        463.5       14640.3
          464       14640.3
        464.5       14640.3
          465       14640.3
        465.5       14640.3
          466       14640.3
        466.5       14640.3
          467       14640.3
        467.5       14640.3
          468       14640.3
        468.5       14640.3
          469       14640.3
        469.5       14640.3
          470       14640.3
        470.5       14640.3
          471       14640.3
        471.5       14640.3
          472       14640.3
        472.5       14640.3
          473       14640.3
        473.5       14640.3
          474       14640.3
        474.5       14640.3
          475       14640.3
        475.5       14640.3
          476       14640.3
        476.5       14640.3
          477       14640.3
        477.5       14640.3
          478       14640.3
        478.5       14640.3
          479       14640.3
        479.5       14640.3
          480       14640.3
        480.5       14640.3
          481       14640.3
        481.5       14640.3
          482       14640.3
        482.5       14640.3
          483       14640.3
        483.5       14640.3
          484       14640.3
        484.5       14640.3
          485       14640.3
        485.5       14640.3
          486       14640.3
        486.5       14640.3
          487       14640.3
        487.5       14640.3
          488       14640.3
        488.5       14640.3
          489       14640.3
        489.5       14640.3
          490       14640.3
        490.5       14640.3
          491       14640.3
        491.5       14640.3
          492       14640.3
        492.5       14640.3
          493       14640.3
        493.5       14640.3
          494       14640.3
        494.5       14640.3
          495       14640.3
        495.5       14640.3
          496       14640.3
        496.5       14640.3
          497       14640.3
        497.5       14640.3
          498       14640.3
        498.5       14640.3
          499       14640.3
        499.5       14640.3
          500       14640.3
        500.5       14640.3
          501       14640.3
        501.5       14640.3
          502       14640.3
        502.5       14640.3
          503       14640.3
        503.5       14640.3
          504       14640.3
        504.5       14640.3
          505       14640.3
        505.5       14640.3
          506       14640.3
        506.5       14640.3
          507       14640.3
        507.5       14640.3
          508       14640.3
        508.5       14640.3
          509       14640.3
        509.5       14640.3
          510       14640.3
        510.5       14640.3
          511       14640.3
        511.5       14640.3
          512       14640.3
        512.5       14640.3
          513       14640.3
        513.5       14640.3
          514       14640.3
        514.5       14640.3
          515       14640.3
        515.5       14640.3
          516       14640.3
        516.5       14640.3
          517       14640.3
        517.5       14640.3
          518       14640.3
        518.5       14640.3
          519       14640.3
        519.5       14640.3
          520       14640.3
        520.5       14640.3
          521       14640.3
        521.5       14640.3
          522       14640.3
        522.5       14640.3
          523       14640.3
        523.5       14640.3
          524       14640.3
        524.5       14640.3
          525       14640.3
        525.5       14640.3
          526       14640.3
        526.5       14640.3
          527       14640.3
        527.5       14640.3
          528       14640.3
        528.5       14640.3
          529       14640.3
        529.5       14640.3
          530       14640.3
        530.5       14640.3
          531       14640.3
        531.5       14640.3
          532       14640.3
        532.5       14640.3
          533       14640.3
        533.5       14640.3
          534       14640.3