# Probe 0 (0.05 0.05 0.005)
#       Probe             0
#        Time
       0.0501     0.0395258
       0.0502     0.0395289
       0.0503      0.039532
       0.0504     0.0395351
       0.0505     0.0395381
       0.0506      0.039541
       0.0507      0.039544
       0.0508     0.0395469
       0.0509     0.0395497
        0.051     0.0395525
       0.0511     0.0395553
       0.0512      0.039558
       0.0513     0.0395607
       0.0514     0.0395634
       0.0515      0.039566
       0.0516     0.0395686
       0.0517     0.0395712
       0.0518     0.0395737
       0.0519     0.0395762
        0.052     0.0395787
       0.0521     0.0395811
       0.0522     0.0395835
       0.0523     0.0395859
       0.0524     0.0395882
       0.0525     0.0395906
       0.0526     0.0395929
       0.0527     0.0395951
       0.0528     0.0395973
       0.0529     0.0395996
        0.053     0.0396017
       0.0531     0.0396039
       0.0532      0.039606
       0.0533     0.0396081
       0.0534     0.0396102
       0.0535     0.0396123
       0.0536     0.0396143
       0.0537     0.0396163
       0.0538     0.0396183
       0.0539     0.0396202
        0.054     0.0396222
       0.0541     0.0396241
       0.0542      0.039626
       0.0543     0.0396278
       0.0544     0.0396297
       0.0545     0.0396315
       0.0546     0.0396333
       0.0547     0.0396351
       0.0548     0.0396369
       0.0549     0.0396386
        0.055     0.0396403
       0.0551     0.0396421
       0.0552     0.0396437
       0.0553     0.0396454
       0.0554     0.0396471
       0.0555     0.0396487
       0.0556     0.0396503
       0.0557     0.0396519
       0.0558     0.0396535
       0.0559     0.0396551
        0.056     0.0396566
       0.0561     0.0396582
       0.0562     0.0396597
       0.0563     0.0396612
       0.0564     0.0396627
       0.0565     0.0396641
       0.0566     0.0396656
       0.0567      0.039667
       0.0568     0.0396684
       0.0569     0.0396699
        0.057     0.0396712
       0.0571     0.0396726
       0.0572      0.039674
       0.0573     0.0396753
       0.0574     0.0396767
       0.0575      0.039678
       0.0576     0.0396793
       0.0577     0.0396806
       0.0578     0.0396819
       0.0579     0.0396832
        0.058     0.0396844
       0.0581     0.0396857
       0.0582     0.0396869
       0.0583     0.0396882
       0.0584     0.0396894
       0.0585     0.0396906
       0.0586     0.0396918
       0.0587     0.0396929
       0.0588     0.0396941
       0.0589     0.0396953
        0.059     0.0396964
       0.0591     0.0396975
       0.0592     0.0396987
       0.0593     0.0396998
       0.0594     0.0397009
       0.0595      0.039702
       0.0596     0.0397031
       0.0597     0.0397041
       0.0598     0.0397052
       0.0599     0.0397062
         0.06     0.0397073
       0.0601     0.0397083
       0.0602     0.0397093
       0.0603     0.0397104
       0.0604     0.0397114
       0.0605     0.0397124
       0.0606     0.0397134
       0.0607     0.0397143
       0.0608     0.0397153
       0.0609     0.0397163
        0.061     0.0397172
       0.0611     0.0397182
       0.0612     0.0397191
       0.0613       0.03972
       0.0614     0.0397209
       0.0615     0.0397219
       0.0616     0.0397228
       0.0617     0.0397237
       0.0618     0.0397246
       0.0619     0.0397254
        0.062     0.0397263
       0.0621     0.0397272
       0.0622      0.039728
       0.0623     0.0397289
       0.0624     0.0397297
       0.0625     0.0397306
       0.0626     0.0397314
       0.0627     0.0397322
       0.0628     0.0397331
       0.0629     0.0397339
        0.063     0.0397347
       0.0631     0.0397355
       0.0632     0.0397363
       0.0633      0.039737
       0.0634     0.0397378
       0.0635     0.0397386
       0.0636     0.0397394
       0.0637     0.0397401
       0.0638     0.0397409
       0.0639     0.0397416
        0.064     0.0397424
       0.0641     0.0397431
       0.0642     0.0397438
       0.0643     0.0397446
       0.0644     0.0397453
       0.0645      0.039746
       0.0646     0.0397467
       0.0647     0.0397474
       0.0648     0.0397481
       0.0649     0.0397488
        0.065     0.0397495
       0.0651     0.0397502
       0.0652     0.0397508
       0.0653     0.0397515
       0.0654     0.0397522
       0.0655     0.0397528
       0.0656     0.0397535
       0.0657     0.0397542
       0.0658     0.0397548
       0.0659     0.0397554
        0.066     0.0397561
       0.0661     0.0397567
       0.0662     0.0397573
       0.0663      0.039758
       0.0664     0.0397586
       0.0665     0.0397592
       0.0666     0.0397598
       0.0667     0.0397604
       0.0668      0.039761
       0.0669     0.0397616
        0.067     0.0397622
       0.0671     0.0397628
       0.0672     0.0397634
       0.0673      0.039764
       0.0674     0.0397645
       0.0675     0.0397651
       0.0676     0.0397657
       0.0677     0.0397662
       0.0678     0.0397668
       0.0679     0.0397674
        0.068     0.0397679
       0.0681     0.0397685
       0.0682      0.039769
       0.0683     0.0397696
       0.0684     0.0397701
       0.0685     0.0397706
       0.0686     0.0397712
       0.0687     0.0397717
       0.0688     0.0397722
       0.0689     0.0397727
        0.069     0.0397732
       0.0691     0.0397738
       0.0692     0.0397743
       0.0693     0.0397748
       0.0694     0.0397753
       0.0695     0.0397758
       0.0696     0.0397763
       0.0697     0.0397768
       0.0698     0.0397773
       0.0699     0.0397777
         0.07     0.0397782
       0.0701     0.0397787
       0.0702     0.0397792
       0.0703     0.0397797
       0.0704     0.0397801
       0.0705     0.0397806
       0.0706     0.0397811
       0.0707     0.0397815
       0.0708      0.039782
       0.0709     0.0397824
        0.071     0.0397829
       0.0711     0.0397833
       0.0712     0.0397838
       0.0713     0.0397842
       0.0714     0.0397847
       0.0715     0.0397851
       0.0716     0.0397855
       0.0717      0.039786
       0.0718     0.0397864
       0.0719     0.0397868
        0.072     0.0397873
       0.0721     0.0397877
       0.0722     0.0397881
       0.0723     0.0397885
       0.0724     0.0397889
       0.0725     0.0397894
       0.0726     0.0397898
       0.0727     0.0397902
       0.0728     0.0397906
       0.0729      0.039791
        0.073     0.0397914
       0.0731     0.0397918
       0.0732     0.0397922
       0.0733     0.0397926
       0.0734      0.039793
       0.0735     0.0397934
       0.0736     0.0397938
       0.0737     0.0397941
       0.0738     0.0397945
       0.0739     0.0397949
        0.074     0.0397953
       0.0741     0.0397957
       0.0742      0.039796
       0.0743     0.0397964
       0.0744     0.0397968
       0.0745     0.0397971
       0.0746     0.0397975
       0.0747     0.0397979
       0.0748     0.0397982
       0.0749     0.0397986
        0.075     0.0397989
       0.0751     0.0397993
       0.0752     0.0397997
       0.0753        0.0398
       0.0754     0.0398004
       0.0755     0.0398007
       0.0756      0.039801
       0.0757     0.0398014
       0.0758     0.0398017
       0.0759     0.0398021
        0.076     0.0398024
       0.0761     0.0398027
       0.0762     0.0398031
       0.0763     0.0398034
       0.0764     0.0398037
       0.0765     0.0398041
       0.0766     0.0398044
       0.0767     0.0398047
       0.0768      0.039805
       0.0769     0.0398054
        0.077     0.0398057
       0.0771      0.039806
       0.0772     0.0398063
       0.0773     0.0398066
       0.0774      0.039807
       0.0775     0.0398073
       0.0776     0.0398076
       0.0777     0.0398079
       0.0778     0.0398082
       0.0779     0.0398085
        0.078     0.0398088
       0.0781     0.0398091
       0.0782     0.0398094
       0.0783     0.0398097
       0.0784       0.03981
       0.0785     0.0398103
       0.0786     0.0398106
       0.0787     0.0398109
       0.0788     0.0398112
       0.0789     0.0398115
        0.079     0.0398118
       0.0791      0.039812
       0.0792     0.0398123
       0.0793     0.0398126
       0.0794     0.0398129
       0.0795     0.0398132
       0.0796     0.0398135
       0.0797     0.0398137
       0.0798      0.039814
       0.0799     0.0398143
         0.08     0.0398146
       0.0801     0.0398148
       0.0802     0.0398151
       0.0803     0.0398154
       0.0804     0.0398157
       0.0805     0.0398159
       0.0806     0.0398162
       0.0807     0.0398165
       0.0808     0.0398167
       0.0809      0.039817
        0.081     0.0398172
       0.0811     0.0398175
       0.0812     0.0398178
       0.0813      0.039818
       0.0814     0.0398183
       0.0815     0.0398185
       0.0816     0.0398188
       0.0817      0.039819
       0.0818     0.0398193
       0.0819     0.0398195
        0.082     0.0398198
       0.0821       0.03982
       0.0822     0.0398203
       0.0823     0.0398205
       0.0824     0.0398208
       0.0825      0.039821
       0.0826     0.0398213
       0.0827     0.0398215
       0.0828     0.0398217
       0.0829      0.039822
        0.083     0.0398222
       0.0831     0.0398225
       0.0832     0.0398227
       0.0833     0.0398229
       0.0834     0.0398232
       0.0835     0.0398234
       0.0836     0.0398236
       0.0837     0.0398239
       0.0838     0.0398241
       0.0839     0.0398243
        0.084     0.0398245
       0.0841     0.0398248
       0.0842      0.039825
       0.0843     0.0398252
       0.0844     0.0398254
       0.0845     0.0398257
       0.0846     0.0398259
       0.0847     0.0398261
       0.0848     0.0398263
       0.0849     0.0398265
        0.085     0.0398268
       0.0851      0.039827
       0.0852     0.0398272
       0.0853     0.0398274
       0.0854     0.0398276
       0.0855     0.0398278
       0.0856      0.039828
       0.0857     0.0398283
       0.0858     0.0398285
       0.0859     0.0398287
        0.086     0.0398289
       0.0861     0.0398291
       0.0862     0.0398293
       0.0863     0.0398295
       0.0864     0.0398297
       0.0865     0.0398299
       0.0866     0.0398301
       0.0867     0.0398303
       0.0868     0.0398305
       0.0869     0.0398307
        0.087     0.0398309
       0.0871     0.0398311
       0.0872     0.0398313
       0.0873     0.0398315
       0.0874     0.0398317
       0.0875     0.0398319
       0.0876     0.0398321
       0.0877     0.0398323
       0.0878     0.0398325
       0.0879     0.0398327
        0.088     0.0398329
       0.0881     0.0398331
       0.0882     0.0398333
       0.0883     0.0398334
       0.0884     0.0398336
       0.0885     0.0398338
       0.0886      0.039834
       0.0887     0.0398342
       0.0888     0.0398344
       0.0889     0.0398346
        0.089     0.0398348
       0.0891     0.0398349
       0.0892     0.0398351
       0.0893     0.0398353
       0.0894     0.0398355
       0.0895     0.0398357
       0.0896     0.0398358
       0.0897      0.039836
       0.0898     0.0398362
       0.0899     0.0398364
         0.09     0.0398366
       0.0901     0.0398367
       0.0902     0.0398369
       0.0903     0.0398371
       0.0904     0.0398373
       0.0905     0.0398374
       0.0906     0.0398376
       0.0907     0.0398378
       0.0908     0.0398379
       0.0909     0.0398381
        0.091     0.0398383
       0.0911     0.0398385
       0.0912     0.0398386
       0.0913     0.0398388
       0.0914      0.039839
       0.0915     0.0398391
       0.0916     0.0398393
       0.0917     0.0398395
       0.0918     0.0398396
       0.0919     0.0398398
        0.092     0.0398399
       0.0921     0.0398401
       0.0922     0.0398403
       0.0923     0.0398404
       0.0924     0.0398406
       0.0925     0.0398408
       0.0926     0.0398409
       0.0927     0.0398411
       0.0928     0.0398412
       0.0929     0.0398414
        0.093     0.0398416
       0.0931     0.0398417
       0.0932     0.0398419
       0.0933      0.039842
       0.0934     0.0398422
       0.0935     0.0398423
       0.0936     0.0398425
       0.0937     0.0398426
       0.0938     0.0398428
       0.0939     0.0398429
        0.094     0.0398431
       0.0941     0.0398433
       0.0942     0.0398434
       0.0943     0.0398436
       0.0944     0.0398437
       0.0945     0.0398439
       0.0946      0.039844
       0.0947     0.0398441
       0.0948     0.0398443
       0.0949     0.0398444
        0.095     0.0398446
       0.0951     0.0398447
       0.0952     0.0398449
       0.0953      0.039845
       0.0954     0.0398452
       0.0955     0.0398453
       0.0956     0.0398455
       0.0957     0.0398456
       0.0958     0.0398457
       0.0959     0.0398459
        0.096      0.039846
       0.0961     0.0398462
       0.0962     0.0398463
       0.0963     0.0398465
       0.0964     0.0398466
       0.0965     0.0398467
       0.0966     0.0398469
       0.0967      0.039847
       0.0968     0.0398471
       0.0969     0.0398473
        0.097     0.0398474
       0.0971     0.0398476
       0.0972     0.0398477
       0.0973     0.0398478
       0.0974      0.039848
       0.0975     0.0398481
       0.0976     0.0398482
       0.0977     0.0398484
       0.0978     0.0398485
       0.0979     0.0398486
        0.098     0.0398488
       0.0981     0.0398489
       0.0982      0.039849
       0.0983     0.0398492
       0.0984     0.0398493
       0.0985     0.0398494
       0.0986     0.0398495
       0.0987     0.0398497
       0.0988     0.0398498
       0.0989     0.0398499
        0.099     0.0398501
       0.0991     0.0398502
       0.0992     0.0398503
       0.0993     0.0398504
       0.0994     0.0398506
       0.0995     0.0398507
       0.0996     0.0398508
       0.0997     0.0398509
       0.0998     0.0398511
       0.0999     0.0398512
          0.1     0.0398513
