# Probe 0 (0.05 0.05 0.005)
#       Probe             0
#        Time
       0.0501   0.000474157
       0.0502   0.000471028
       0.0503   0.000467942
       0.0504   0.000464897
       0.0505   0.000461893
       0.0506    0.00045893
       0.0507   0.000456006
       0.0508   0.000453121
       0.0509   0.000450274
        0.051   0.000447465
       0.0511   0.000444692
       0.0512   0.000441956
       0.0513   0.000439255
       0.0514    0.00043659
       0.0515   0.000433958
       0.0516   0.000431361
       0.0517   0.000428797
       0.0518   0.000426265
       0.0519   0.000423765
        0.052   0.000421297
       0.0521    0.00041886
       0.0522   0.000416454
       0.0523   0.000414077
       0.0524    0.00041173
       0.0525   0.000409412
       0.0526   0.000407122
       0.0527   0.000404861
       0.0528   0.000402627
       0.0529    0.00040042
        0.053    0.00039824
       0.0531   0.000396086
       0.0532   0.000393957
       0.0533   0.000391855
       0.0534   0.000389777
       0.0535   0.000387724
       0.0536   0.000385694
       0.0537   0.000383689
       0.0538   0.000381707
       0.0539   0.000379749
        0.054   0.000377813
       0.0541   0.000375899
       0.0542   0.000374007
       0.0543   0.000372137
       0.0544   0.000370288
       0.0545    0.00036846
       0.0546   0.000366653
       0.0547   0.000364866
       0.0548   0.000363099
       0.0549   0.000361352
        0.055   0.000359625
       0.0551   0.000357916
       0.0552   0.000356226
       0.0553   0.000354555
       0.0554   0.000352902
       0.0555   0.000351267
       0.0556    0.00034965
       0.0557    0.00034805
       0.0558   0.000346467
       0.0559   0.000344901
        0.056   0.000343352
       0.0561    0.00034182
       0.0562   0.000340303
       0.0563   0.000338803
       0.0564   0.000337318
       0.0565   0.000335849
       0.0566   0.000334395
       0.0567   0.000332956
       0.0568   0.000331532
       0.0569   0.000330123
        0.057   0.000328728
       0.0571   0.000327347
       0.0572   0.000325981
       0.0573   0.000324628
       0.0574   0.000323289
       0.0575   0.000321963
       0.0576    0.00032065
       0.0577   0.000319351
       0.0578   0.000318064
       0.0579    0.00031679
        0.058   0.000315529
       0.0581    0.00031428
       0.0582   0.000313043
       0.0583   0.000311819
       0.0584   0.000310606
       0.0585   0.000309404
       0.0586   0.000308215
       0.0587   0.000307037
       0.0588    0.00030587
       0.0589   0.000304714
        0.059   0.000303569
       0.0591   0.000302434
       0.0592   0.000301311
       0.0593   0.000300198
       0.0594   0.000299095
       0.0595   0.000298003
       0.0596    0.00029692
       0.0597   0.000295848
       0.0598   0.000294785
       0.0599   0.000293732
         0.06   0.000292689
       0.0601   0.000291655
       0.0602   0.000290631
       0.0603   0.000289616
       0.0604    0.00028861
       0.0605   0.000287613
       0.0606   0.000286624
       0.0607   0.000285645
       0.0608   0.000284674
       0.0609   0.000283712
        0.061   0.000282758
       0.0611   0.000281813
       0.0612   0.000280875
       0.0613   0.000279946
       0.0614   0.000279025
       0.0615   0.000278112
       0.0616   0.000277207
       0.0617   0.000276309
       0.0618   0.000275419
       0.0619   0.000274537
        0.062   0.000273662
       0.0621   0.000272795
       0.0622   0.000271934
       0.0623   0.000271081
       0.0624   0.000270235
       0.0625   0.000269397
       0.0626   0.000268565
       0.0627    0.00026774
       0.0628   0.000266921
       0.0629    0.00026611
        0.063   0.000265305
       0.0631   0.000264506
       0.0632   0.000263714
       0.0633   0.000262929
       0.0634   0.000262149
       0.0635   0.000261376
       0.0636    0.00026061
       0.0637   0.000259849
       0.0638   0.000259094
       0.0639   0.000258346
        0.064   0.000257603
       0.0641   0.000256866
       0.0642   0.000256135
       0.0643   0.000255409
       0.0644   0.000254689
       0.0645   0.000253975
       0.0646   0.000253266
       0.0647   0.000252563
       0.0648   0.000251865
       0.0649   0.000251172
        0.065   0.000250485
       0.0651   0.000249803
       0.0652   0.000249126
       0.0653   0.000248454
       0.0654   0.000247787
       0.0655   0.000247126
       0.0656   0.000246469
       0.0657   0.000245817
       0.0658    0.00024517
       0.0659   0.000244527
        0.066    0.00024389
       0.0661   0.000243257
       0.0662   0.000242628
       0.0663   0.000242005
       0.0664   0.000241385
       0.0665   0.000240771
       0.0666    0.00024016
       0.0667   0.000239554
       0.0668   0.000238953
       0.0669   0.000238356
        0.067   0.000237763
       0.0671   0.000237174
       0.0672   0.000236589
       0.0673   0.000236009
       0.0674   0.000235432
       0.0675    0.00023486
       0.0676   0.000234292
       0.0677   0.000233727
       0.0678   0.000233167
       0.0679    0.00023261
        0.068   0.000232057
       0.0681   0.000231509
       0.0682   0.000230963
       0.0683   0.000230422
       0.0684   0.000229884
       0.0685    0.00022935
       0.0686    0.00022882
       0.0687   0.000228293
       0.0688   0.000227769
       0.0689   0.000227249
        0.069   0.000226733
       0.0691    0.00022622
       0.0692   0.000225711
       0.0693   0.000225204
       0.0694   0.000224702
       0.0695   0.000224202
       0.0696   0.000223706
       0.0697   0.000223213
       0.0698   0.000222723
       0.0699   0.000222237
         0.07   0.000221753
       0.0701   0.000221273
       0.0702   0.000220796
       0.0703   0.000220322
       0.0704   0.000219851
       0.0705   0.000219382
       0.0706   0.000218917
       0.0707   0.000218455
       0.0708   0.000217996
       0.0709    0.00021754
        0.071   0.000217086
       0.0711   0.000216636
       0.0712   0.000216188
       0.0713   0.000215743
       0.0714   0.000215301
       0.0715   0.000214861
       0.0716   0.000214425
       0.0717    0.00021399
       0.0718   0.000213559
       0.0719    0.00021313
        0.072   0.000212704
       0.0721   0.000212281
       0.0722    0.00021186
       0.0723   0.000211441
       0.0724   0.000211025
       0.0725   0.000210612
       0.0726   0.000210201
       0.0727   0.000209793
       0.0728   0.000209387
       0.0729   0.000208983
        0.073   0.000208582
       0.0731   0.000208183
       0.0732   0.000207787
       0.0733   0.000207393
       0.0734   0.000207001
       0.0735   0.000206611
       0.0736   0.000206224
       0.0737   0.000205839
       0.0738   0.000205456
       0.0739   0.000205076
        0.074   0.000204697
       0.0741   0.000204321
       0.0742   0.000203947
       0.0743   0.000203575
       0.0744   0.000203206
       0.0745   0.000202838
       0.0746   0.000202473
       0.0747   0.000202109
       0.0748   0.000201748
       0.0749   0.000201388
        0.075   0.000201031
       0.0751   0.000200676
       0.0752   0.000200322
       0.0753   0.000199971
       0.0754   0.000199621
       0.0755   0.000199274
       0.0756   0.000198928
       0.0757   0.000198584
       0.0758   0.000198243
       0.0759   0.000197903
        0.076   0.000197565
       0.0761   0.000197228
       0.0762   0.000196894
       0.0763   0.000196561
       0.0764   0.000196231
       0.0765   0.000195902
       0.0766   0.000195574
       0.0767   0.000195249
       0.0768   0.000194925
       0.0769   0.000194603
        0.077   0.000194283
       0.0771   0.000193964
       0.0772   0.000193647
       0.0773   0.000193332
       0.0774   0.000193018
       0.0775   0.000192706
       0.0776   0.000192396
       0.0777   0.000192087
       0.0778    0.00019178
       0.0779   0.000191475
        0.078   0.000191171
       0.0781   0.000190869
       0.0782   0.000190568
       0.0783   0.000190269
       0.0784   0.000189971
       0.0785   0.000189675
       0.0786    0.00018938
       0.0787   0.000189087
       0.0788   0.000188795
       0.0789   0.000188505
        0.079   0.000188216
       0.0791   0.000187929
       0.0792   0.000187643
       0.0793   0.000187359
       0.0794   0.000187076
       0.0795   0.000186795
       0.0796   0.000186514
       0.0797   0.000186236
       0.0798   0.000185958
       0.0799   0.000185682
         0.08   0.000185408
       0.0801   0.000185134
       0.0802   0.000184862
       0.0803   0.000184592
       0.0804   0.000184322
       0.0805   0.000184054
       0.0806   0.000183788
       0.0807   0.000183522
       0.0808   0.000183258
       0.0809   0.000182995
        0.081   0.000182734
       0.0811   0.000182474
       0.0812   0.000182214
       0.0813   0.000181957
       0.0814     0.0001817
       0.0815   0.000181445
       0.0816    0.00018119
       0.0817   0.000180938
       0.0818   0.000180686
       0.0819   0.000180435
        0.082   0.000180186
       0.0821   0.000179937
       0.0822    0.00017969
       0.0823   0.000179444
       0.0824     0.0001792
       0.0825   0.000178956
       0.0826   0.000178713
       0.0827   0.000178472
       0.0828   0.000178232
       0.0829   0.000177993
        0.083   0.000177754
       0.0831   0.000177517
       0.0832   0.000177282
       0.0833   0.000177047
       0.0834   0.000176813
       0.0835    0.00017658
       0.0836   0.000176348
       0.0837   0.000176118
       0.0838   0.000175888
       0.0839    0.00017566
        0.084   0.000175432
       0.0841   0.000175206
       0.0842    0.00017498
       0.0843   0.000174756
       0.0844   0.000174532
       0.0845    0.00017431
       0.0846   0.000174088
       0.0847   0.000173867
       0.0848   0.000173648
       0.0849   0.000173429
        0.085   0.000173212
       0.0851   0.000172995
       0.0852   0.000172779
       0.0853   0.000172564
       0.0854    0.00017235
       0.0855   0.000172137
       0.0856   0.000171925
       0.0857   0.000171714
       0.0858   0.000171504
       0.0859   0.000171295
        0.086   0.000171086
       0.0861   0.000170879
       0.0862   0.000170672
       0.0863   0.000170466
       0.0864   0.000170261
       0.0865   0.000170057
       0.0866   0.000169854
       0.0867   0.000169652
       0.0868    0.00016945
       0.0869    0.00016925
        0.087    0.00016905
       0.0871   0.000168851
       0.0872   0.000168653
       0.0873   0.000168455
       0.0874   0.000168259
       0.0875   0.000168063
       0.0876   0.000167869
       0.0877   0.000167674
       0.0878   0.000167481
       0.0879   0.000167289
        0.088   0.000167097
       0.0881   0.000166906
       0.0882   0.000166716
       0.0883   0.000166527
       0.0884   0.000166338
       0.0885    0.00016615
       0.0886   0.000165963
       0.0887   0.000165777
       0.0888   0.000165592
       0.0889   0.000165407
        0.089   0.000165223
       0.0891   0.000165039
       0.0892   0.000164857
       0.0893   0.000164675
       0.0894   0.000164494
       0.0895   0.000164313
       0.0896   0.000164134
       0.0897   0.000163955
       0.0898   0.000163777
       0.0899   0.000163599
         0.09   0.000163422
       0.0901   0.000163246
       0.0902    0.00016307
       0.0903   0.000162896
       0.0904   0.000162722
       0.0905   0.000162548
       0.0906   0.000162375
       0.0907   0.000162203
       0.0908   0.000162032
       0.0909   0.000161861
        0.091   0.000161691
       0.0911   0.000161521
       0.0912   0.000161353
       0.0913   0.000161184
       0.0914   0.000161017
       0.0915    0.00016085
       0.0916   0.000160684
       0.0917   0.000160518
       0.0918   0.000160353
       0.0919   0.000160189
        0.092   0.000160025
       0.0921   0.000159862
       0.0922   0.000159699
       0.0923   0.000159537
       0.0924   0.000159376
       0.0925   0.000159215
       0.0926   0.000159055
       0.0927   0.000158896
       0.0928   0.000158737
       0.0929   0.000158579
        0.093   0.000158421
       0.0931   0.000158264
       0.0932   0.000158107
       0.0933   0.000157951
       0.0934   0.000157796
       0.0935   0.000157641
       0.0936   0.000157487
       0.0937   0.000157333
       0.0938    0.00015718
       0.0939   0.000157027
        0.094   0.000156875
       0.0941   0.000156723
       0.0942   0.000156572
       0.0943   0.000156422
       0.0944   0.000156272
       0.0945   0.000156123
       0.0946   0.000155974
       0.0947   0.000155826
       0.0948   0.000155678
       0.0949   0.000155531
        0.095   0.000155384
       0.0951   0.000155238
       0.0952   0.000155092
       0.0953   0.000154947
       0.0954   0.000154802
       0.0955   0.000154658
       0.0956   0.000154515
       0.0957   0.000154372
       0.0958   0.000154229
       0.0959   0.000154087
        0.096   0.000153945
       0.0961   0.000153804
       0.0962   0.000153664
       0.0963   0.000153523
       0.0964   0.000153384
       0.0965   0.000153245
       0.0966   0.000153106
       0.0967   0.000152968
       0.0968    0.00015283
       0.0969   0.000152693
        0.097   0.000152556
       0.0971    0.00015242
       0.0972   0.000152284
       0.0973   0.000152148
       0.0974   0.000152013
       0.0975   0.000151879
       0.0976   0.000151745
       0.0977   0.000151611
       0.0978   0.000151478
       0.0979   0.000151346
        0.098   0.000151213
       0.0981   0.000151082
       0.0982    0.00015095
       0.0983   0.000150819
       0.0984   0.000150689
       0.0985   0.000150559
       0.0986   0.000150429
       0.0987     0.0001503
       0.0988   0.000150171
       0.0989   0.000150043
        0.099   0.000149915
       0.0991   0.000149788
       0.0992   0.000149661
       0.0993   0.000149534
       0.0994   0.000149408
       0.0995   0.000149282
       0.0996   0.000149157
       0.0997   0.000149032
       0.0998   0.000148907
       0.0999   0.000148783
          0.1   0.000148659
