# Probe 0 (0.05 0.05 0.005)
#       Probe             0
#        Time
       0.0501   0.000474165
       0.0502   0.000471036
       0.0503    0.00046795
       0.0504   0.000464905
       0.0505   0.000461901
       0.0506   0.000458938
       0.0507   0.000456014
       0.0508   0.000453129
       0.0509   0.000450282
        0.051   0.000447473
       0.0511     0.0004447
       0.0512   0.000441964
       0.0513   0.000439263
       0.0514   0.000436598
       0.0515   0.000433967
       0.0516   0.000431369
       0.0517   0.000428805
       0.0518   0.000426273
       0.0519   0.000423773
        0.052   0.000421305
       0.0521   0.000418868
       0.0522   0.000416462
       0.0523   0.000414085
       0.0524   0.000411738
       0.0525    0.00040942
       0.0526    0.00040713
       0.0527   0.000404869
       0.0528   0.000402635
       0.0529   0.000400428
        0.053   0.000398248
       0.0531   0.000396094
       0.0532   0.000393965
       0.0533   0.000391863
       0.0534   0.000389785
       0.0535   0.000387732
       0.0536   0.000385702
       0.0537   0.000383697
       0.0538   0.000381715
       0.0539   0.000379757
        0.054   0.000377821
       0.0541   0.000375907
       0.0542   0.000374015
       0.0543   0.000372145
       0.0544   0.000370296
       0.0545   0.000368468
       0.0546   0.000366661
       0.0547   0.000364874
       0.0548   0.000363107
       0.0549    0.00036136
        0.055   0.000359633
       0.0551   0.000357924
       0.0552   0.000356234
       0.0553   0.000354563
       0.0554    0.00035291
       0.0555   0.000351275
       0.0556   0.000349658
       0.0557   0.000348058
       0.0558   0.000346475
       0.0559   0.000344909
        0.056    0.00034336
       0.0561   0.000341828
       0.0562   0.000340311
       0.0563   0.000338811
       0.0564   0.000337326
       0.0565   0.000335857
       0.0566   0.000334403
       0.0567   0.000332964
       0.0568    0.00033154
       0.0569   0.000330131
        0.057   0.000328736
       0.0571   0.000327355
       0.0572   0.000325989
       0.0573   0.000324636
       0.0574   0.000323297
       0.0575   0.000321971
       0.0576   0.000320658
       0.0577   0.000319359
       0.0578   0.000318072
       0.0579   0.000316798
        0.058   0.000315537
       0.0581   0.000314288
       0.0582   0.000313051
       0.0583   0.000311827
       0.0584   0.000310614
       0.0585   0.000309412
       0.0586   0.000308223
       0.0587   0.000307045
       0.0588   0.000305878
       0.0589   0.000304722
        0.059   0.000303577
       0.0591   0.000302442
       0.0592   0.000301319
       0.0593   0.000300206
       0.0594   0.000299103
       0.0595   0.000298011
       0.0596   0.000296928
       0.0597   0.000295856
       0.0598   0.000294793
       0.0599    0.00029374
         0.06   0.000292697
       0.0601   0.000291663
       0.0602   0.000290639
       0.0603   0.000289624
       0.0604   0.000288618
       0.0605   0.000287621
       0.0606   0.000286632
       0.0607   0.000285653
       0.0608   0.000284682
       0.0609    0.00028372
        0.061   0.000282766
       0.0611   0.000281821
       0.0612   0.000280883
       0.0613   0.000279954
       0.0614   0.000279033
       0.0615    0.00027812
       0.0616   0.000277215
       0.0617   0.000276317
       0.0618   0.000275427
       0.0619   0.000274545
        0.062    0.00027367
       0.0621   0.000272803
       0.0622   0.000271942
       0.0623   0.000271089
       0.0624   0.000270243
       0.0625   0.000269405
       0.0626   0.000268573
       0.0627   0.000267748
       0.0628   0.000266929
       0.0629   0.000266118
        0.063   0.000265313
       0.0631   0.000264514
       0.0632   0.000263722
       0.0633   0.000262937
       0.0634   0.000262157
       0.0635   0.000261384
       0.0636   0.000260618
       0.0637   0.000259857
       0.0638   0.000259102
       0.0639   0.000258354
        0.064   0.000257611
       0.0641   0.000256874
       0.0642   0.000256143
       0.0643   0.000255417
       0.0644   0.000254697
       0.0645   0.000253983
       0.0646   0.000253274
       0.0647   0.000252571
       0.0648   0.000251873
       0.0649    0.00025118
        0.065   0.000250493
       0.0651   0.000249811
       0.0652   0.000249134
       0.0653   0.000248462
       0.0654   0.000247795
       0.0655   0.000247134
       0.0656   0.000246477
       0.0657   0.000245825
       0.0658   0.000245178
       0.0659   0.000244535
        0.066   0.000243898
       0.0661   0.000243265
       0.0662   0.000242636
       0.0663   0.000242013
       0.0664   0.000241393
       0.0665   0.000240779
       0.0666   0.000240168
       0.0667   0.000239562
       0.0668   0.000238961
       0.0669   0.000238364
        0.067   0.000237771
       0.0671   0.000237182
       0.0672   0.000236597
       0.0673   0.000236017
       0.0674    0.00023544
       0.0675   0.000234868
       0.0676     0.0002343
       0.0677   0.000233735
       0.0678   0.000233175
       0.0679   0.000232618
        0.068   0.000232066
       0.0681   0.000231517
       0.0682   0.000230971
       0.0683    0.00023043
       0.0684   0.000229892
       0.0685   0.000229358
       0.0686   0.000228828
       0.0687   0.000228301
       0.0688   0.000227777
       0.0689   0.000227257
        0.069   0.000226741
       0.0691   0.000226228
       0.0692   0.000225719
       0.0693   0.000225212
       0.0694    0.00022471
       0.0695    0.00022421
       0.0696   0.000223714
       0.0697   0.000223221
       0.0698   0.000222731
       0.0699   0.000222245
         0.07   0.000221761
       0.0701   0.000221281
       0.0702   0.000220804
       0.0703    0.00022033
       0.0704   0.000219859
       0.0705    0.00021939
       0.0706   0.000218925
       0.0707   0.000218463
       0.0708   0.000218004
       0.0709   0.000217548
        0.071   0.000217094
       0.0711   0.000216644
       0.0712   0.000216196
       0.0713   0.000215751
       0.0714   0.000215309
       0.0715   0.000214869
       0.0716   0.000214433
       0.0717   0.000213998
       0.0718   0.000213567
       0.0719   0.000213138
        0.072   0.000212712
       0.0721   0.000212289
       0.0722   0.000211868
       0.0723   0.000211449
       0.0724   0.000211033
       0.0725    0.00021062
       0.0726   0.000210209
       0.0727   0.000209801
       0.0728   0.000209395
       0.0729   0.000208991
        0.073    0.00020859
       0.0731   0.000208191
       0.0732   0.000207795
       0.0733   0.000207401
       0.0734   0.000207009
       0.0735   0.000206619
       0.0736   0.000206232
       0.0737   0.000205847
       0.0738   0.000205464
       0.0739   0.000205084
        0.074   0.000204705
       0.0741   0.000204329
       0.0742   0.000203955
       0.0743   0.000203583
       0.0744   0.000203214
       0.0745   0.000202846
       0.0746   0.000202481
       0.0747   0.000202117
       0.0748   0.000201756
       0.0749   0.000201396
        0.075   0.000201039
       0.0751   0.000200684
       0.0752    0.00020033
       0.0753   0.000199979
       0.0754   0.000199629
       0.0755   0.000199282
       0.0756   0.000198936
       0.0757   0.000198592
       0.0758   0.000198251
       0.0759   0.000197911
        0.076   0.000197573
       0.0761   0.000197236
       0.0762   0.000196902
       0.0763   0.000196569
       0.0764   0.000196239
       0.0765    0.00019591
       0.0766   0.000195582
       0.0767   0.000195257
       0.0768   0.000194933
       0.0769   0.000194611
        0.077   0.000194291
       0.0771   0.000193972
       0.0772   0.000193655
       0.0773    0.00019334
       0.0774   0.000193026
       0.0775   0.000192714
       0.0776   0.000192404
       0.0777   0.000192095
       0.0778   0.000191788
       0.0779   0.000191483
        0.078   0.000191179
       0.0781   0.000190877
       0.0782   0.000190576
       0.0783   0.000190277
       0.0784   0.000189979
       0.0785   0.000189683
       0.0786   0.000189388
       0.0787   0.000189095
       0.0788   0.000188803
       0.0789   0.000188513
        0.079   0.000188224
       0.0791   0.000187937
       0.0792   0.000187651
       0.0793   0.000187367
       0.0794   0.000187084
       0.0795   0.000186803
       0.0796   0.000186522
       0.0797   0.000186244
       0.0798   0.000185966
       0.0799    0.00018569
         0.08   0.000185416
       0.0801   0.000185142
       0.0802    0.00018487
       0.0803     0.0001846
       0.0804    0.00018433
       0.0805   0.000184062
       0.0806   0.000183796
       0.0807    0.00018353
       0.0808   0.000183266
       0.0809   0.000183003
        0.081   0.000182742
       0.0811   0.000182482
       0.0812   0.000182223
       0.0813   0.000181965
       0.0814   0.000181708
       0.0815   0.000181453
       0.0816   0.000181198
       0.0817   0.000180946
       0.0818   0.000180694
       0.0819   0.000180443
        0.082   0.000180194
       0.0821   0.000179945
       0.0822   0.000179698
       0.0823   0.000179452
       0.0824   0.000179208
       0.0825   0.000178964
       0.0826   0.000178721
       0.0827    0.00017848
       0.0828    0.00017824
       0.0829   0.000178001
        0.083   0.000177762
       0.0831   0.000177525
       0.0832    0.00017729
       0.0833   0.000177055
       0.0834   0.000176821
       0.0835   0.000176588
       0.0836   0.000176356
       0.0837   0.000176126
       0.0838   0.000175896
       0.0839   0.000175668
        0.084    0.00017544
       0.0841   0.000175214
       0.0842   0.000174988
       0.0843   0.000174764
       0.0844    0.00017454
       0.0845   0.000174318
       0.0846   0.000174096
       0.0847   0.000173875
       0.0848   0.000173656
       0.0849   0.000173437
        0.085    0.00017322
       0.0851   0.000173003
       0.0852   0.000172787
       0.0853   0.000172572
       0.0854   0.000172358
       0.0855   0.000172145
       0.0856   0.000171933
       0.0857   0.000171722
       0.0858   0.000171512
       0.0859   0.000171303
        0.086   0.000171094
       0.0861   0.000170887
       0.0862    0.00017068
       0.0863   0.000170474
       0.0864   0.000170269
       0.0865   0.000170065
       0.0866   0.000169862
       0.0867    0.00016966
       0.0868   0.000169458
       0.0869   0.000169258
        0.087   0.000169058
       0.0871   0.000168859
       0.0872   0.000168661
       0.0873   0.000168464
       0.0874   0.000168267
       0.0875   0.000168071
       0.0876   0.000167877
       0.0877   0.000167682
       0.0878   0.000167489
       0.0879   0.000167297
        0.088   0.000167105
       0.0881   0.000166914
       0.0882   0.000166724
       0.0883   0.000166535
       0.0884   0.000166346
       0.0885   0.000166158
       0.0886   0.000165971
       0.0887   0.000165785
       0.0888     0.0001656
       0.0889   0.000165415
        0.089   0.000165231
       0.0891   0.000165047
       0.0892   0.000164865
       0.0893   0.000164683
       0.0894   0.000164502
       0.0895   0.000164321
       0.0896   0.000164142
       0.0897   0.000163963
       0.0898   0.000163785
       0.0899   0.000163607
         0.09    0.00016343
       0.0901   0.000163254
       0.0902   0.000163078
       0.0903   0.000162904
       0.0904    0.00016273
       0.0905   0.000162556
       0.0906   0.000162383
       0.0907   0.000162211
       0.0908    0.00016204
       0.0909   0.000161869
        0.091   0.000161699
       0.0911   0.000161529
       0.0912   0.000161361
       0.0913   0.000161192
       0.0914   0.000161025
       0.0915   0.000160858
       0.0916   0.000160692
       0.0917   0.000160526
       0.0918   0.000160361
       0.0919   0.000160197
        0.092   0.000160033
       0.0921    0.00015987
       0.0922   0.000159707
       0.0923   0.000159545
       0.0924   0.000159384
       0.0925   0.000159223
       0.0926   0.000159063
       0.0927   0.000158904
       0.0928   0.000158745
       0.0929   0.000158587
        0.093   0.000158429
       0.0931   0.000158272
       0.0932   0.000158115
       0.0933   0.000157959
       0.0934   0.000157804
       0.0935   0.000157649
       0.0936   0.000157495
       0.0937   0.000157341
       0.0938   0.000157188
       0.0939   0.000157035
        0.094   0.000156883
       0.0941   0.000156731
       0.0942    0.00015658
       0.0943    0.00015643
       0.0944    0.00015628
       0.0945   0.000156131
       0.0946   0.000155982
       0.0947   0.000155834
       0.0948   0.000155686
       0.0949   0.000155539
        0.095   0.000155392
       0.0951   0.000155246
       0.0952     0.0001551
       0.0953   0.000154955
       0.0954    0.00015481
       0.0955   0.000154666
       0.0956   0.000154523
       0.0957    0.00015438
       0.0958   0.000154237
       0.0959   0.000154095
        0.096   0.000153953
       0.0961   0.000153812
       0.0962   0.000153672
       0.0963   0.000153531
       0.0964   0.000153392
       0.0965   0.000153253
       0.0966   0.000153114
       0.0967   0.000152976
       0.0968   0.000152838
       0.0969   0.000152701
        0.097   0.000152564
       0.0971   0.000152428
       0.0972   0.000152292
       0.0973   0.000152156
       0.0974   0.000152021
       0.0975   0.000151887
       0.0976   0.000151753
       0.0977   0.000151619
       0.0978   0.000151486
       0.0979   0.000151354
        0.098   0.000151221
       0.0981    0.00015109
       0.0982   0.000150958
       0.0983   0.000150827
       0.0984   0.000150697
       0.0985   0.000150567
       0.0986   0.000150437
       0.0987   0.000150308
       0.0988   0.000150179
       0.0989   0.000150051
        0.099   0.000149923
       0.0991   0.000149796
       0.0992   0.000149669
       0.0993   0.000149542
       0.0994   0.000149416
       0.0995    0.00014929
       0.0996   0.000149165
       0.0997    0.00014904
       0.0998   0.000148915
       0.0999   0.000148791
          0.1   0.000148667
