# Probe 0 (0.05 0.05 0.005)
#       Probe             0
#        Time
       0.0501   0.000474148
       0.0502   0.000471019
       0.0503   0.000467932
       0.0504   0.000464887
       0.0505   0.000461884
       0.0506    0.00045892
       0.0507   0.000455996
       0.0508   0.000453111
       0.0509   0.000450264
        0.051   0.000447455
       0.0511   0.000444683
       0.0512   0.000441946
       0.0513   0.000439246
       0.0514    0.00043658
       0.0515   0.000433949
       0.0516   0.000431351
       0.0517   0.000428787
       0.0518   0.000426255
       0.0519   0.000423756
        0.052   0.000421288
       0.0521   0.000418851
       0.0522   0.000416444
       0.0523   0.000414067
       0.0524    0.00041172
       0.0525   0.000409402
       0.0526   0.000407113
       0.0527   0.000404851
       0.0528   0.000402617
       0.0529    0.00040041
        0.053    0.00039823
       0.0531   0.000396076
       0.0532   0.000393948
       0.0533   0.000391845
       0.0534   0.000389767
       0.0535   0.000387714
       0.0536   0.000385685
       0.0537   0.000383679
       0.0538   0.000381698
       0.0539   0.000379739
        0.054   0.000377803
       0.0541   0.000375889
       0.0542   0.000373997
       0.0543   0.000372127
       0.0544   0.000370278
       0.0545   0.000368451
       0.0546   0.000366643
       0.0547   0.000364857
       0.0548    0.00036309
       0.0549   0.000361343
        0.055   0.000359615
       0.0551   0.000357906
       0.0552   0.000356216
       0.0553   0.000354545
       0.0554   0.000352892
       0.0555   0.000351257
       0.0556    0.00034964
       0.0557    0.00034804
       0.0558   0.000346457
       0.0559   0.000344892
        0.056   0.000343343
       0.0561    0.00034181
       0.0562   0.000340294
       0.0563   0.000338793
       0.0564   0.000337308
       0.0565   0.000335839
       0.0566   0.000334385
       0.0567   0.000332947
       0.0568   0.000331523
       0.0569   0.000330113
        0.057   0.000328718
       0.0571   0.000327338
       0.0572   0.000325971
       0.0573   0.000324618
       0.0574   0.000323279
       0.0575   0.000321953
       0.0576   0.000320641
       0.0577   0.000319341
       0.0578   0.000318055
       0.0579   0.000316781
        0.058   0.000315519
       0.0581    0.00031427
       0.0582   0.000313034
       0.0583   0.000311809
       0.0584   0.000310596
       0.0585   0.000309395
       0.0586   0.000308205
       0.0587   0.000307027
       0.0588    0.00030586
       0.0589   0.000304704
        0.059   0.000303559
       0.0591   0.000302425
       0.0592   0.000301301
       0.0593   0.000300188
       0.0594   0.000299085
       0.0595   0.000297993
       0.0596    0.00029691
       0.0597   0.000295838
       0.0598   0.000294776
       0.0599   0.000293723
         0.06   0.000292679
       0.0601   0.000291646
       0.0602   0.000290621
       0.0603   0.000289606
       0.0604     0.0002886
       0.0605   0.000287603
       0.0606   0.000286615
       0.0607   0.000285635
       0.0608   0.000284664
       0.0609   0.000283702
        0.061   0.000282748
       0.0611   0.000281803
       0.0612   0.000280866
       0.0613   0.000279937
       0.0614   0.000279016
       0.0615   0.000278102
       0.0616   0.000277197
       0.0617     0.0002763
       0.0618    0.00027541
       0.0619   0.000274527
        0.062   0.000273652
       0.0621   0.000272785
       0.0622   0.000271925
       0.0623   0.000271072
       0.0624   0.000270226
       0.0625   0.000269387
       0.0626   0.000268555
       0.0627    0.00026773
       0.0628   0.000266911
       0.0629     0.0002661
        0.063   0.000265295
       0.0631   0.000264496
       0.0632   0.000263705
       0.0633   0.000262919
       0.0634    0.00026214
       0.0635   0.000261367
       0.0636     0.0002606
       0.0637   0.000259839
       0.0638   0.000259085
       0.0639   0.000258336
        0.064   0.000257593
       0.0641   0.000256856
       0.0642   0.000256125
       0.0643   0.000255399
       0.0644   0.000254679
       0.0645   0.000253965
       0.0646   0.000253256
       0.0647   0.000252553
       0.0648   0.000251855
       0.0649   0.000251163
        0.065   0.000250475
       0.0651   0.000249793
       0.0652   0.000249116
       0.0653   0.000248444
       0.0654   0.000247778
       0.0655   0.000247116
       0.0656   0.000246459
       0.0657   0.000245807
       0.0658    0.00024516
       0.0659   0.000244517
        0.066    0.00024388
       0.0661   0.000243247
       0.0662   0.000242619
       0.0663   0.000241995
       0.0664   0.000241376
       0.0665   0.000240761
       0.0666   0.000240151
       0.0667   0.000239545
       0.0668   0.000238943
       0.0669   0.000238346
        0.067   0.000237753
       0.0671   0.000237164
       0.0672    0.00023658
       0.0673   0.000235999
       0.0674   0.000235423
       0.0675    0.00023485
       0.0676   0.000234282
       0.0677   0.000233718
       0.0678   0.000233157
       0.0679     0.0002326
        0.068   0.000232048
       0.0681   0.000231499
       0.0682   0.000230954
       0.0683   0.000230412
       0.0684   0.000229874
       0.0685    0.00022934
       0.0686    0.00022881
       0.0687   0.000228283
       0.0688    0.00022776
       0.0689    0.00022724
        0.069   0.000226723
       0.0691    0.00022621
       0.0692   0.000225701
       0.0693   0.000225195
       0.0694   0.000224692
       0.0695   0.000224192
       0.0696   0.000223696
       0.0697   0.000223203
       0.0698   0.000222713
       0.0699   0.000222227
         0.07   0.000221743
       0.0701   0.000221263
       0.0702   0.000220786
       0.0703   0.000220312
       0.0704   0.000219841
       0.0705   0.000219373
       0.0706   0.000218908
       0.0707   0.000218445
       0.0708   0.000217986
       0.0709    0.00021753
        0.071   0.000217077
       0.0711   0.000216626
       0.0712   0.000216178
       0.0713   0.000215733
       0.0714   0.000215291
       0.0715   0.000214852
       0.0716   0.000214415
       0.0717   0.000213981
       0.0718   0.000213549
       0.0719   0.000213121
        0.072   0.000212694
       0.0721   0.000212271
       0.0722    0.00021185
       0.0723   0.000211432
       0.0724   0.000211016
       0.0725   0.000210602
       0.0726   0.000210191
       0.0727   0.000209783
       0.0728   0.000209377
       0.0729   0.000208973
        0.073   0.000208572
       0.0731   0.000208173
       0.0732   0.000207777
       0.0733   0.000207383
       0.0734   0.000206991
       0.0735   0.000206602
       0.0736   0.000206214
       0.0737   0.000205829
       0.0738   0.000205447
       0.0739   0.000205066
        0.074   0.000204688
       0.0741   0.000204312
       0.0742   0.000203938
       0.0743   0.000203566
       0.0744   0.000203196
       0.0745   0.000202828
       0.0746   0.000202463
       0.0747   0.000202099
       0.0748   0.000201738
       0.0749   0.000201379
        0.075   0.000201021
       0.0751   0.000200666
       0.0752   0.000200312
       0.0753   0.000199961
       0.0754   0.000199612
       0.0755   0.000199264
       0.0756   0.000198918
       0.0757   0.000198575
       0.0758   0.000198233
       0.0759   0.000197893
        0.076   0.000197555
       0.0761   0.000197219
       0.0762   0.000196884
       0.0763   0.000196552
       0.0764   0.000196221
       0.0765   0.000195892
       0.0766   0.000195565
       0.0767   0.000195239
       0.0768   0.000194915
       0.0769   0.000194593
        0.077   0.000194273
       0.0771   0.000193954
       0.0772   0.000193637
       0.0773   0.000193322
       0.0774   0.000193009
       0.0775   0.000192697
       0.0776   0.000192386
       0.0777   0.000192078
       0.0778   0.000191771
       0.0779   0.000191465
        0.078   0.000191161
       0.0781   0.000190859
       0.0782   0.000190558
       0.0783   0.000190259
       0.0784   0.000189961
       0.0785   0.000189665
       0.0786    0.00018937
       0.0787   0.000189077
       0.0788   0.000188786
       0.0789   0.000188495
        0.079   0.000188207
       0.0791   0.000187919
       0.0792   0.000187634
       0.0793   0.000187349
       0.0794   0.000187066
       0.0795   0.000186785
       0.0796   0.000186505
       0.0797   0.000186226
       0.0798   0.000185949
       0.0799   0.000185673
         0.08   0.000185398
       0.0801   0.000185125
       0.0802   0.000184853
       0.0803   0.000184582
       0.0804   0.000184313
       0.0805   0.000184045
       0.0806   0.000183778
       0.0807   0.000183513
       0.0808   0.000183249
       0.0809   0.000182986
        0.081   0.000182724
       0.0811   0.000182464
       0.0812   0.000182205
       0.0813   0.000181947
       0.0814    0.00018169
       0.0815   0.000181435
       0.0816   0.000181181
       0.0817   0.000180928
       0.0818   0.000180676
       0.0819   0.000180425
        0.082   0.000180176
       0.0821   0.000179928
       0.0822   0.000179681
       0.0823   0.000179435
       0.0824    0.00017919
       0.0825   0.000178946
       0.0826   0.000178704
       0.0827   0.000178462
       0.0828   0.000178222
       0.0829   0.000177983
        0.083   0.000177745
       0.0831   0.000177508
       0.0832   0.000177272
       0.0833   0.000177037
       0.0834   0.000176803
       0.0835    0.00017657
       0.0836   0.000176339
       0.0837   0.000176108
       0.0838   0.000175878
       0.0839    0.00017565
        0.084   0.000175422
       0.0841   0.000175196
       0.0842    0.00017497
       0.0843   0.000174746
       0.0844   0.000174522
       0.0845     0.0001743
       0.0846   0.000174078
       0.0847   0.000173858
       0.0848   0.000173638
       0.0849   0.000173419
        0.085   0.000173202
       0.0851   0.000172985
       0.0852   0.000172769
       0.0853   0.000172555
       0.0854   0.000172341
       0.0855   0.000172128
       0.0856   0.000171916
       0.0857   0.000171704
       0.0858   0.000171494
       0.0859   0.000171285
        0.086   0.000171076
       0.0861   0.000170869
       0.0862   0.000170662
       0.0863   0.000170456
       0.0864   0.000170252
       0.0865   0.000170047
       0.0866   0.000169844
       0.0867   0.000169642
       0.0868   0.000169441
       0.0869    0.00016924
        0.087    0.00016904
       0.0871   0.000168841
       0.0872   0.000168643
       0.0873   0.000168446
       0.0874   0.000168249
       0.0875   0.000168054
       0.0876   0.000167859
       0.0877   0.000167665
       0.0878   0.000167471
       0.0879   0.000167279
        0.088   0.000167087
       0.0881   0.000166896
       0.0882   0.000166706
       0.0883   0.000166517
       0.0884   0.000166328
       0.0885   0.000166141
       0.0886   0.000165954
       0.0887   0.000165767
       0.0888   0.000165582
       0.0889   0.000165397
        0.089   0.000165213
       0.0891    0.00016503
       0.0892   0.000164847
       0.0893   0.000164665
       0.0894   0.000164484
       0.0895   0.000164304
       0.0896   0.000164124
       0.0897   0.000163945
       0.0898   0.000163767
       0.0899   0.000163589
         0.09   0.000163412
       0.0901   0.000163236
       0.0902   0.000163061
       0.0903   0.000162886
       0.0904   0.000162712
       0.0905   0.000162538
       0.0906   0.000162366
       0.0907   0.000162193
       0.0908   0.000162022
       0.0909   0.000161851
        0.091   0.000161681
       0.0911   0.000161512
       0.0912   0.000161343
       0.0913   0.000161175
       0.0914   0.000161007
       0.0915    0.00016084
       0.0916   0.000160674
       0.0917   0.000160508
       0.0918   0.000160343
       0.0919   0.000160179
        0.092   0.000160015
       0.0921   0.000159852
       0.0922    0.00015969
       0.0923   0.000159528
       0.0924   0.000159366
       0.0925   0.000159206
       0.0926   0.000159046
       0.0927   0.000158886
       0.0928   0.000158727
       0.0929   0.000158569
        0.093   0.000158411
       0.0931   0.000158254
       0.0932   0.000158097
       0.0933   0.000157941
       0.0934   0.000157786
       0.0935   0.000157631
       0.0936   0.000157477
       0.0937   0.000157323
       0.0938    0.00015717
       0.0939   0.000157017
        0.094   0.000156865
       0.0941   0.000156714
       0.0942   0.000156563
       0.0943   0.000156412
       0.0944   0.000156262
       0.0945   0.000156113
       0.0946   0.000155964
       0.0947   0.000155816
       0.0948   0.000155668
       0.0949   0.000155521
        0.095   0.000155374
       0.0951   0.000155228
       0.0952   0.000155083
       0.0953   0.000154937
       0.0954   0.000154793
       0.0955   0.000154649
       0.0956   0.000154505
       0.0957   0.000154362
       0.0958   0.000154219
       0.0959   0.000154077
        0.096   0.000153936
       0.0961   0.000153794
       0.0962   0.000153654
       0.0963   0.000153514
       0.0964   0.000153374
       0.0965   0.000153235
       0.0966   0.000153096
       0.0967   0.000152958
       0.0968    0.00015282
       0.0969   0.000152683
        0.097   0.000152546
       0.0971    0.00015241
       0.0972   0.000152274
       0.0973   0.000152139
       0.0974   0.000152004
       0.0975   0.000151869
       0.0976   0.000151735
       0.0977   0.000151602
       0.0978   0.000151468
       0.0979   0.000151336
        0.098   0.000151204
       0.0981   0.000151072
       0.0982    0.00015094
       0.0983    0.00015081
       0.0984   0.000150679
       0.0985   0.000150549
       0.0986   0.000150419
       0.0987    0.00015029
       0.0988   0.000150162
       0.0989   0.000150033
        0.099   0.000149905
       0.0991   0.000149778
       0.0992   0.000149651
       0.0993   0.000149524
       0.0994   0.000149398
       0.0995   0.000149272
       0.0996   0.000149147
       0.0997   0.000149022
       0.0998   0.000148897
       0.0999   0.000148773
          0.1   0.000148649
