# Probe 0 (0.05 0.05 0.005)
#       Probe             0
#        Time
       0.0501    0.00969058
       0.0502    0.00969135
       0.0503     0.0096921
       0.0504    0.00969284
       0.0505    0.00969358
       0.0506     0.0096943
       0.0507    0.00969502
       0.0508    0.00969572
       0.0509    0.00969642
        0.051     0.0096971
       0.0511    0.00969778
       0.0512    0.00969845
       0.0513    0.00969911
       0.0514    0.00969976
       0.0515     0.0097004
       0.0516    0.00970104
       0.0517    0.00970167
       0.0518    0.00970228
       0.0519     0.0097029
        0.052     0.0097035
       0.0521    0.00970409
       0.0522    0.00970468
       0.0523    0.00970526
       0.0524    0.00970584
       0.0525     0.0097064
       0.0526    0.00970696
       0.0527    0.00970752
       0.0528    0.00970806
       0.0529     0.0097086
        0.053    0.00970913
       0.0531    0.00970966
       0.0532    0.00971018
       0.0533    0.00971069
       0.0534     0.0097112
       0.0535     0.0097117
       0.0536     0.0097122
       0.0537    0.00971269
       0.0538    0.00971317
       0.0539    0.00971365
        0.054    0.00971412
       0.0541    0.00971459
       0.0542    0.00971505
       0.0543    0.00971551
       0.0544    0.00971596
       0.0545    0.00971641
       0.0546    0.00971685
       0.0547    0.00971729
       0.0548    0.00971772
       0.0549    0.00971815
        0.055    0.00971857
       0.0551    0.00971899
       0.0552     0.0097194
       0.0553    0.00971981
       0.0554    0.00972021
       0.0555    0.00972061
       0.0556    0.00972101
       0.0557     0.0097214
       0.0558    0.00972178
       0.0559    0.00972217
        0.056    0.00972255
       0.0561    0.00972292
       0.0562    0.00972329
       0.0563    0.00972366
       0.0564    0.00972402
       0.0565    0.00972438
       0.0566    0.00972473
       0.0567    0.00972509
       0.0568    0.00972543
       0.0569    0.00972578
        0.057    0.00972612
       0.0571    0.00972646
       0.0572    0.00972679
       0.0573    0.00972712
       0.0574    0.00972745
       0.0575    0.00972777
       0.0576    0.00972809
       0.0577    0.00972841
       0.0578    0.00972872
       0.0579    0.00972904
        0.058    0.00972934
       0.0581    0.00972965
       0.0582    0.00972995
       0.0583    0.00973025
       0.0584    0.00973055
       0.0585    0.00973084
       0.0586    0.00973113
       0.0587    0.00973142
       0.0588     0.0097317
       0.0589    0.00973199
        0.059    0.00973227
       0.0591    0.00973254
       0.0592    0.00973282
       0.0593    0.00973309
       0.0594    0.00973336
       0.0595    0.00973363
       0.0596    0.00973389
       0.0597    0.00973415
       0.0598    0.00973441
       0.0599    0.00973467
         0.06    0.00973492
       0.0601    0.00973518
       0.0602    0.00973543
       0.0603    0.00973568
       0.0604    0.00973592
       0.0605    0.00973617
       0.0606    0.00973641
       0.0607    0.00973665
       0.0608    0.00973688
       0.0609    0.00973712
        0.061    0.00973735
       0.0611    0.00973758
       0.0612    0.00973781
       0.0613    0.00973804
       0.0614    0.00973826
       0.0615    0.00973849
       0.0616    0.00973871
       0.0617    0.00973893
       0.0618    0.00973914
       0.0619    0.00973936
        0.062    0.00973957
       0.0621    0.00973979
       0.0622       0.00974
       0.0623     0.0097402
       0.0624    0.00974041
       0.0625    0.00974062
       0.0626    0.00974082
       0.0627    0.00974102
       0.0628    0.00974122
       0.0629    0.00974142
        0.063    0.00974162
       0.0631    0.00974181
       0.0632      0.009742
       0.0633     0.0097422
       0.0634    0.00974239
       0.0635    0.00974258
       0.0636    0.00974276
       0.0637    0.00974295
       0.0638    0.00974313
       0.0639    0.00974332
        0.064     0.0097435
       0.0641    0.00974368
       0.0642    0.00974386
       0.0643    0.00974403
       0.0644    0.00974421
       0.0645    0.00974438
       0.0646    0.00974456
       0.0647    0.00974473
       0.0648     0.0097449
       0.0649    0.00974507
        0.065    0.00974524
       0.0651     0.0097454
       0.0652    0.00974557
       0.0653    0.00974573
       0.0654     0.0097459
       0.0655    0.00974606
       0.0656    0.00974622
       0.0657    0.00974638
       0.0658    0.00974654
       0.0659    0.00974669
        0.066    0.00974685
       0.0661      0.009747
       0.0662    0.00974716
       0.0663    0.00974731
       0.0664    0.00974746
       0.0665    0.00974761
       0.0666    0.00974776
       0.0667    0.00974791
       0.0668    0.00974806
       0.0669     0.0097482
        0.067    0.00974835
       0.0671    0.00974849
       0.0672    0.00974863
       0.0673    0.00974877
       0.0674    0.00974892
       0.0675    0.00974906
       0.0676    0.00974919
       0.0677    0.00974933
       0.0678    0.00974947
       0.0679    0.00974961
        0.068    0.00974974
       0.0681    0.00974987
       0.0682    0.00975001
       0.0683    0.00975014
       0.0684    0.00975027
       0.0685     0.0097504
       0.0686    0.00975053
       0.0687    0.00975066
       0.0688    0.00975079
       0.0689    0.00975092
        0.069    0.00975104
       0.0691    0.00975117
       0.0692    0.00975129
       0.0693    0.00975141
       0.0694    0.00975154
       0.0695    0.00975166
       0.0696    0.00975178
       0.0697     0.0097519
       0.0698    0.00975202
       0.0699    0.00975214
         0.07    0.00975226
       0.0701    0.00975238
       0.0702    0.00975249
       0.0703    0.00975261
       0.0704    0.00975272
       0.0705    0.00975284
       0.0706    0.00975295
       0.0707    0.00975306
       0.0708    0.00975318
       0.0709    0.00975329
        0.071     0.0097534
       0.0711    0.00975351
       0.0712    0.00975362
       0.0713    0.00975373
       0.0714    0.00975383
       0.0715    0.00975394
       0.0716    0.00975405
       0.0717    0.00975415
       0.0718    0.00975426
       0.0719    0.00975437
        0.072    0.00975447
       0.0721    0.00975457
       0.0722    0.00975468
       0.0723    0.00975478
       0.0724    0.00975488
       0.0725    0.00975498
       0.0726    0.00975508
       0.0727    0.00975518
       0.0728    0.00975528
       0.0729    0.00975538
        0.073    0.00975548
       0.0731    0.00975557
       0.0732    0.00975567
       0.0733    0.00975577
       0.0734    0.00975586
       0.0735    0.00975596
       0.0736    0.00975605
       0.0737    0.00975615
       0.0738    0.00975624
       0.0739    0.00975633
        0.074    0.00975643
       0.0741    0.00975652
       0.0742    0.00975661
       0.0743     0.0097567
       0.0744    0.00975679
       0.0745    0.00975688
       0.0746    0.00975697
       0.0747    0.00975706
       0.0748    0.00975715
       0.0749    0.00975723
        0.075    0.00975732
       0.0751    0.00975741
       0.0752    0.00975749
       0.0753    0.00975758
       0.0754    0.00975767
       0.0755    0.00975775
       0.0756    0.00975784
       0.0757    0.00975792
       0.0758      0.009758
       0.0759    0.00975809
        0.076    0.00975817
       0.0761    0.00975825
       0.0762    0.00975833
       0.0763    0.00975841
       0.0764    0.00975849
       0.0765    0.00975858
       0.0766    0.00975865
       0.0767    0.00975873
       0.0768    0.00975881
       0.0769    0.00975889
        0.077    0.00975897
       0.0771    0.00975905
       0.0772    0.00975913
       0.0773     0.0097592
       0.0774    0.00975928
       0.0775    0.00975936
       0.0776    0.00975943
       0.0777    0.00975951
       0.0778    0.00975958
       0.0779    0.00975966
        0.078    0.00975973
       0.0781     0.0097598
       0.0782    0.00975988
       0.0783    0.00975995
       0.0784    0.00976002
       0.0785     0.0097601
       0.0786    0.00976017
       0.0787    0.00976024
       0.0788    0.00976031
       0.0789    0.00976038
        0.079    0.00976045
       0.0791    0.00976052
       0.0792    0.00976059
       0.0793    0.00976066
       0.0794    0.00976073
       0.0795     0.0097608
       0.0796    0.00976087
       0.0797    0.00976094
       0.0798      0.009761
       0.0799    0.00976107
         0.08    0.00976114
       0.0801    0.00976121
       0.0802    0.00976127
       0.0803    0.00976134
       0.0804     0.0097614
       0.0805    0.00976147
       0.0806    0.00976154
       0.0807     0.0097616
       0.0808    0.00976166
       0.0809    0.00976173
        0.081    0.00976179
       0.0811    0.00976186
       0.0812    0.00976192
       0.0813    0.00976198
       0.0814    0.00976205
       0.0815    0.00976211
       0.0816    0.00976217
       0.0817    0.00976223
       0.0818    0.00976229
       0.0819    0.00976235
        0.082    0.00976242
       0.0821    0.00976248
       0.0822    0.00976254
       0.0823     0.0097626
       0.0824    0.00976266
       0.0825    0.00976272
       0.0826    0.00976277
       0.0827    0.00976283
       0.0828    0.00976289
       0.0829    0.00976295
        0.083    0.00976301
       0.0831    0.00976307
       0.0832    0.00976312
       0.0833    0.00976318
       0.0834    0.00976324
       0.0835     0.0097633
       0.0836    0.00976335
       0.0837    0.00976341
       0.0838    0.00976347
       0.0839    0.00976352
        0.084    0.00976358
       0.0841    0.00976363
       0.0842    0.00976369
       0.0843    0.00976374
       0.0844     0.0097638
       0.0845    0.00976385
       0.0846    0.00976391
       0.0847    0.00976396
       0.0848    0.00976401
       0.0849    0.00976407
        0.085    0.00976412
       0.0851    0.00976417
       0.0852    0.00976422
       0.0853    0.00976428
       0.0854    0.00976433
       0.0855    0.00976438
       0.0856    0.00976443
       0.0857    0.00976449
       0.0858    0.00976454
       0.0859    0.00976459
        0.086    0.00976464
       0.0861    0.00976469
       0.0862    0.00976474
       0.0863    0.00976479
       0.0864    0.00976484
       0.0865    0.00976489
       0.0866    0.00976494
       0.0867    0.00976499
       0.0868    0.00976504
       0.0869    0.00976509
        0.087    0.00976514
       0.0871    0.00976518
       0.0872    0.00976523
       0.0873    0.00976528
       0.0874    0.00976533
       0.0875    0.00976538
       0.0876    0.00976542
       0.0877    0.00976547
       0.0878    0.00976552
       0.0879    0.00976557
        0.088    0.00976561
       0.0881    0.00976566
       0.0882    0.00976571
       0.0883    0.00976575
       0.0884     0.0097658
       0.0885    0.00976584
       0.0886    0.00976589
       0.0887    0.00976594
       0.0888    0.00976598
       0.0889    0.00976603
        0.089    0.00976607
       0.0891    0.00976612
       0.0892    0.00976616
       0.0893    0.00976621
       0.0894    0.00976625
       0.0895    0.00976629
       0.0896    0.00976634
       0.0897    0.00976638
       0.0898    0.00976642
       0.0899    0.00976647
         0.09    0.00976651
       0.0901    0.00976655
       0.0902     0.0097666
       0.0903    0.00976664
       0.0904    0.00976668
       0.0905    0.00976672
       0.0906    0.00976677
       0.0907    0.00976681
       0.0908    0.00976685
       0.0909    0.00976689
        0.091    0.00976693
       0.0911    0.00976698
       0.0912    0.00976702
       0.0913    0.00976706
       0.0914     0.0097671
       0.0915    0.00976714
       0.0916    0.00976718
       0.0917    0.00976722
       0.0918    0.00976726
       0.0919     0.0097673
        0.092    0.00976734
       0.0921    0.00976738
       0.0922    0.00976742
       0.0923    0.00976746
       0.0924     0.0097675
       0.0925    0.00976754
       0.0926    0.00976758
       0.0927    0.00976762
       0.0928    0.00976766
       0.0929    0.00976769
        0.093    0.00976773
       0.0931    0.00976777
       0.0932    0.00976781
       0.0933    0.00976785
       0.0934    0.00976789
       0.0935    0.00976792
       0.0936    0.00976796
       0.0937      0.009768
       0.0938    0.00976804
       0.0939    0.00976807
        0.094    0.00976811
       0.0941    0.00976815
       0.0942    0.00976819
       0.0943    0.00976822
       0.0944    0.00976826
       0.0945    0.00976829
       0.0946    0.00976833
       0.0947    0.00976837
       0.0948     0.0097684
       0.0949    0.00976844
        0.095    0.00976848
       0.0951    0.00976851
       0.0952    0.00976855
       0.0953    0.00976858
       0.0954    0.00976862
       0.0955    0.00976865
       0.0956    0.00976869
       0.0957    0.00976872
       0.0958    0.00976876
       0.0959    0.00976879
        0.096    0.00976883
       0.0961    0.00976886
       0.0962     0.0097689
       0.0963    0.00976893
       0.0964    0.00976896
       0.0965      0.009769
       0.0966    0.00976903
       0.0967    0.00976907
       0.0968     0.0097691
       0.0969    0.00976913
        0.097    0.00976917
       0.0971     0.0097692
       0.0972    0.00976923
       0.0973    0.00976927
       0.0974     0.0097693
       0.0975    0.00976933
       0.0976    0.00976936
       0.0977     0.0097694
       0.0978    0.00976943
       0.0979    0.00976946
        0.098    0.00976949
       0.0981    0.00976953
       0.0982    0.00976956
       0.0983    0.00976959
       0.0984    0.00976962
       0.0985    0.00976965
       0.0986    0.00976969
       0.0987    0.00976972
       0.0988    0.00976975
       0.0989    0.00976978
        0.099    0.00976981
       0.0991    0.00976984
       0.0992    0.00976987
       0.0993     0.0097699
       0.0994    0.00976994
       0.0995    0.00976997
       0.0996       0.00977
       0.0997    0.00977003
       0.0998    0.00977006
       0.0999    0.00977009
          0.1    0.00977012
