# Probe 0 (0.05 0.05 0.005)
#       Probe             0
#        Time
       0.0501   1.15324e-05
       0.0502   1.14563e-05
       0.0503   1.13813e-05
       0.0504   1.13072e-05
       0.0505   1.12341e-05
       0.0506   1.11621e-05
       0.0507   1.10909e-05
       0.0508   1.10208e-05
       0.0509   1.09515e-05
        0.051   1.08832e-05
       0.0511   1.08158e-05
       0.0512   1.07492e-05
       0.0513   1.06835e-05
       0.0514   1.06187e-05
       0.0515   1.05547e-05
       0.0516   1.04915e-05
       0.0517   1.04291e-05
       0.0518   1.03676e-05
       0.0519   1.03068e-05
        0.052   1.02467e-05
       0.0521   1.01875e-05
       0.0522   1.01289e-05
       0.0523   1.00711e-05
       0.0524    1.0014e-05
       0.0525   9.95765e-06
       0.0526   9.90196e-06
       0.0527   9.84695e-06
       0.0528   9.79261e-06
       0.0529   9.73893e-06
        0.053    9.6859e-06
       0.0531   9.63351e-06
       0.0532   9.58175e-06
       0.0533    9.5306e-06
       0.0534   9.48007e-06
       0.0535   9.43013e-06
       0.0536   9.38078e-06
       0.0537     9.332e-06
       0.0538    9.2838e-06
       0.0539   9.23616e-06
        0.054   9.18907e-06
       0.0541   9.14252e-06
       0.0542   9.09651e-06
       0.0543   9.05102e-06
       0.0544   9.00606e-06
       0.0545    8.9616e-06
       0.0546   8.91764e-06
       0.0547   8.87418e-06
       0.0548   8.83121e-06
       0.0549   8.78871e-06
        0.055   8.74669e-06
       0.0551   8.70513e-06
       0.0552   8.66403e-06
       0.0553   8.62338e-06
       0.0554   8.58318e-06
       0.0555   8.54341e-06
       0.0556   8.50407e-06
       0.0557   8.46516e-06
       0.0558   8.42667e-06
       0.0559   8.38858e-06
        0.056   8.35091e-06
       0.0561   8.31363e-06
       0.0562   8.27675e-06
       0.0563   8.24026e-06
       0.0564   8.20415e-06
       0.0565   8.16841e-06
       0.0566   8.13305e-06
       0.0567   8.09805e-06
       0.0568   8.06342e-06
       0.0569   8.02914e-06
        0.057   7.99521e-06
       0.0571   7.96163e-06
       0.0572   7.92839e-06
       0.0573   7.89549e-06
       0.0574   7.86291e-06
       0.0575   7.83067e-06
       0.0576   7.79874e-06
       0.0577   7.76714e-06
       0.0578   7.73585e-06
       0.0579   7.70486e-06
        0.058   7.67418e-06
       0.0581   7.64381e-06
       0.0582   7.61372e-06
       0.0583   7.58394e-06
       0.0584   7.55444e-06
       0.0585   7.52522e-06
       0.0586   7.49628e-06
       0.0587   7.46763e-06
       0.0588   7.43924e-06
       0.0589   7.41113e-06
        0.059   7.38328e-06
       0.0591   7.35569e-06
       0.0592   7.32836e-06
       0.0593   7.30129e-06
       0.0594   7.27447e-06
       0.0595    7.2479e-06
       0.0596   7.22157e-06
       0.0597   7.19549e-06
       0.0598   7.16965e-06
       0.0599   7.14404e-06
         0.06   7.11867e-06
       0.0601   7.09352e-06
       0.0602   7.06861e-06
       0.0603   7.04392e-06
       0.0604   7.01945e-06
       0.0605   6.99519e-06
       0.0606   6.97116e-06
       0.0607   6.94734e-06
       0.0608   6.92372e-06
       0.0609   6.90032e-06
        0.061   6.87712e-06
       0.0611   6.85413e-06
       0.0612   6.83133e-06
       0.0613   6.80873e-06
       0.0614   6.78633e-06
       0.0615   6.76412e-06
       0.0616    6.7421e-06
       0.0617   6.72027e-06
       0.0618   6.69863e-06
       0.0619   6.67717e-06
        0.062   6.65589e-06
       0.0621   6.63479e-06
       0.0622   6.61387e-06
       0.0623   6.59312e-06
       0.0624   6.57254e-06
       0.0625   6.55214e-06
       0.0626    6.5319e-06
       0.0627   6.51184e-06
       0.0628   6.49193e-06
       0.0629   6.47219e-06
        0.063   6.45262e-06
       0.0631    6.4332e-06
       0.0632   6.41393e-06
       0.0633   6.39483e-06
       0.0634   6.37588e-06
       0.0635   6.35707e-06
       0.0636   6.33842e-06
       0.0637   6.31992e-06
       0.0638   6.30157e-06
       0.0639   6.28336e-06
        0.064   6.26529e-06
       0.0641   6.24737e-06
       0.0642   6.22958e-06
       0.0643   6.21194e-06
       0.0644   6.19443e-06
       0.0645   6.17705e-06
       0.0646   6.15982e-06
       0.0647   6.14271e-06
       0.0648   6.12573e-06
       0.0649   6.10889e-06
        0.065   6.09217e-06
       0.0651   6.07558e-06
       0.0652   6.05912e-06
       0.0653   6.04278e-06
       0.0654   6.02656e-06
       0.0655   6.01046e-06
       0.0656   5.99449e-06
       0.0657   5.97863e-06
       0.0658   5.96289e-06
       0.0659   5.94727e-06
        0.066   5.93176e-06
       0.0661   5.91636e-06
       0.0662   5.90108e-06
       0.0663   5.88591e-06
       0.0664   5.87085e-06
       0.0665    5.8559e-06
       0.0666   5.84106e-06
       0.0667   5.82632e-06
       0.0668   5.81169e-06
       0.0669   5.79716e-06
        0.067   5.78274e-06
       0.0671   5.76842e-06
       0.0672    5.7542e-06
       0.0673   5.74008e-06
       0.0674   5.72606e-06
       0.0675   5.71214e-06
       0.0676   5.69832e-06
       0.0677   5.68459e-06
       0.0678   5.67096e-06
       0.0679   5.65742e-06
        0.068   5.64398e-06
       0.0681   5.63063e-06
       0.0682   5.61737e-06
       0.0683    5.6042e-06
       0.0684   5.59112e-06
       0.0685   5.57813e-06
       0.0686   5.56523e-06
       0.0687   5.55241e-06
       0.0688   5.53968e-06
       0.0689   5.52704e-06
        0.069   5.51448e-06
       0.0691     5.502e-06
       0.0692   5.48961e-06
       0.0693    5.4773e-06
       0.0694   5.46507e-06
       0.0695   5.45292e-06
       0.0696   5.44085e-06
       0.0697   5.42886e-06
       0.0698   5.41695e-06
       0.0699   5.40512e-06
         0.07   5.39336e-06
       0.0701   5.38168e-06
       0.0702   5.37007e-06
       0.0703   5.35854e-06
       0.0704   5.34708e-06
       0.0705    5.3357e-06
       0.0706   5.32439e-06
       0.0707   5.31315e-06
       0.0708   5.30198e-06
       0.0709   5.29088e-06
        0.071   5.27985e-06
       0.0711   5.26889e-06
       0.0712     5.258e-06
       0.0713   5.24718e-06
       0.0714   5.23642e-06
       0.0715   5.22573e-06
       0.0716   5.21511e-06
       0.0717   5.20455e-06
       0.0718   5.19406e-06
       0.0719   5.18363e-06
        0.072   5.17327e-06
       0.0721   5.16297e-06
       0.0722   5.15273e-06
       0.0723   5.14255e-06
       0.0724   5.13244e-06
       0.0725   5.12238e-06
       0.0726   5.11239e-06
       0.0727   5.10246e-06
       0.0728   5.09258e-06
       0.0729   5.08277e-06
        0.073   5.07301e-06
       0.0731   5.06331e-06
       0.0732   5.05367e-06
       0.0733   5.04408e-06
       0.0734   5.03455e-06
       0.0735   5.02508e-06
       0.0736   5.01566e-06
       0.0737    5.0063e-06
       0.0738   4.99699e-06
       0.0739   4.98773e-06
        0.074   4.97853e-06
       0.0741   4.96938e-06
       0.0742   4.96029e-06
       0.0743   4.95124e-06
       0.0744   4.94225e-06
       0.0745   4.93331e-06
       0.0746   4.92442e-06
       0.0747   4.91558e-06
       0.0748   4.90679e-06
       0.0749   4.89805e-06
        0.075   4.88935e-06
       0.0751   4.88071e-06
       0.0752   4.87212e-06
       0.0753   4.86357e-06
       0.0754   4.85507e-06
       0.0755   4.84662e-06
       0.0756   4.83821e-06
       0.0757   4.82985e-06
       0.0758   4.82154e-06
       0.0759   4.81327e-06
        0.076   4.80505e-06
       0.0761   4.79687e-06
       0.0762   4.78874e-06
       0.0763   4.78065e-06
       0.0764    4.7726e-06
       0.0765    4.7646e-06
       0.0766   4.75664e-06
       0.0767   4.74872e-06
       0.0768   4.74085e-06
       0.0769   4.73302e-06
        0.077   4.72523e-06
       0.0771   4.71748e-06
       0.0772   4.70977e-06
       0.0773    4.7021e-06
       0.0774   4.69447e-06
       0.0775   4.68689e-06
       0.0776   4.67934e-06
       0.0777   4.67183e-06
       0.0778   4.66436e-06
       0.0779   4.65693e-06
        0.078   4.64954e-06
       0.0781   4.64219e-06
       0.0782   4.63487e-06
       0.0783    4.6276e-06
       0.0784   4.62036e-06
       0.0785   4.61315e-06
       0.0786   4.60599e-06
       0.0787   4.59886e-06
       0.0788   4.59176e-06
       0.0789   4.58471e-06
        0.079   4.57768e-06
       0.0791    4.5707e-06
       0.0792   4.56375e-06
       0.0793   4.55683e-06
       0.0794   4.54995e-06
       0.0795    4.5431e-06
       0.0796   4.53629e-06
       0.0797   4.52951e-06
       0.0798   4.52276e-06
       0.0799   4.51605e-06
         0.08   4.50937e-06
       0.0801   4.50272e-06
       0.0802   4.49611e-06
       0.0803   4.48952e-06
       0.0804   4.48297e-06
       0.0805   4.47646e-06
       0.0806   4.46997e-06
       0.0807   4.46352e-06
       0.0808   4.45709e-06
       0.0809    4.4507e-06
        0.081   4.44434e-06
       0.0811   4.43801e-06
       0.0812   4.43171e-06
       0.0813   4.42543e-06
       0.0814   4.41919e-06
       0.0815   4.41298e-06
       0.0816    4.4068e-06
       0.0817   4.40065e-06
       0.0818   4.39452e-06
       0.0819   4.38843e-06
        0.082   4.38236e-06
       0.0821   4.37632e-06
       0.0822   4.37031e-06
       0.0823   4.36433e-06
       0.0824   4.35838e-06
       0.0825   4.35245e-06
       0.0826   4.34655e-06
       0.0827   4.34068e-06
       0.0828   4.33484e-06
       0.0829   4.32902e-06
        0.083   4.32323e-06
       0.0831   4.31746e-06
       0.0832   4.31173e-06
       0.0833   4.30601e-06
       0.0834   4.30033e-06
       0.0835   4.29467e-06
       0.0836   4.28903e-06
       0.0837   4.28342e-06
       0.0838   4.27784e-06
       0.0839   4.27228e-06
        0.084   4.26675e-06
       0.0841   4.26124e-06
       0.0842   4.25575e-06
       0.0843   4.25029e-06
       0.0844   4.24486e-06
       0.0845   4.23944e-06
       0.0846   4.23406e-06
       0.0847   4.22869e-06
       0.0848   4.22335e-06
       0.0849   4.21803e-06
        0.085   4.21274e-06
       0.0851   4.20747e-06
       0.0852   4.20222e-06
       0.0853   4.19699e-06
       0.0854   4.19179e-06
       0.0855   4.18661e-06
       0.0856   4.18145e-06
       0.0857   4.17632e-06
       0.0858   4.17121e-06
       0.0859   4.16611e-06
        0.086   4.16105e-06
       0.0861     4.156e-06
       0.0862   4.15097e-06
       0.0863   4.14597e-06
       0.0864   4.14098e-06
       0.0865   4.13602e-06
       0.0866   4.13108e-06
       0.0867   4.12616e-06
       0.0868   4.12126e-06
       0.0869   4.11638e-06
        0.087   4.11152e-06
       0.0871   4.10668e-06
       0.0872   4.10186e-06
       0.0873   4.09706e-06
       0.0874   4.09228e-06
       0.0875   4.08753e-06
       0.0876   4.08279e-06
       0.0877   4.07807e-06
       0.0878   4.07337e-06
       0.0879   4.06869e-06
        0.088   4.06402e-06
       0.0881   4.05938e-06
       0.0882   4.05476e-06
       0.0883   4.05015e-06
       0.0884   4.04557e-06
       0.0885     4.041e-06
       0.0886   4.03645e-06
       0.0887   4.03192e-06
       0.0888   4.02741e-06
       0.0889   4.02291e-06
        0.089   4.01844e-06
       0.0891   4.01398e-06
       0.0892   4.00954e-06
       0.0893   4.00512e-06
       0.0894   4.00071e-06
       0.0895   3.99632e-06
       0.0896   3.99195e-06
       0.0897    3.9876e-06
       0.0898   3.98326e-06
       0.0899   3.97894e-06
         0.09   3.97464e-06
       0.0901   3.97036e-06
       0.0902   3.96609e-06
       0.0903   3.96184e-06
       0.0904    3.9576e-06
       0.0905   3.95338e-06
       0.0906   3.94918e-06
       0.0907     3.945e-06
       0.0908   3.94083e-06
       0.0909   3.93667e-06
        0.091   3.93254e-06
       0.0911   3.92841e-06
       0.0912   3.92431e-06
       0.0913   3.92022e-06
       0.0914   3.91614e-06
       0.0915   3.91209e-06
       0.0916   3.90804e-06
       0.0917   3.90401e-06
       0.0918       3.9e-06
       0.0919     3.896e-06
        0.092   3.89202e-06
       0.0921   3.88805e-06
       0.0922    3.8841e-06
       0.0923   3.88016e-06
       0.0924   3.87624e-06
       0.0925   3.87233e-06
       0.0926   3.86844e-06
       0.0927   3.86456e-06
       0.0928   3.86069e-06
       0.0929   3.85684e-06
        0.093     3.853e-06
       0.0931   3.84918e-06
       0.0932   3.84537e-06
       0.0933   3.84158e-06
       0.0934    3.8378e-06
       0.0935   3.83403e-06
       0.0936   3.83028e-06
       0.0937   3.82654e-06
       0.0938   3.82281e-06
       0.0939    3.8191e-06
        0.094    3.8154e-06
       0.0941   3.81172e-06
       0.0942   3.80805e-06
       0.0943   3.80439e-06
       0.0944   3.80074e-06
       0.0945   3.79711e-06
       0.0946   3.79349e-06
       0.0947   3.78989e-06
       0.0948   3.78629e-06
       0.0949   3.78271e-06
        0.095   3.77914e-06
       0.0951   3.77559e-06
       0.0952   3.77205e-06
       0.0953   3.76852e-06
       0.0954     3.765e-06
       0.0955   3.76149e-06
       0.0956     3.758e-06
       0.0957   3.75452e-06
       0.0958   3.75105e-06
       0.0959    3.7476e-06
        0.096   3.74415e-06
       0.0961   3.74072e-06
       0.0962    3.7373e-06
       0.0963   3.73389e-06
       0.0964   3.73049e-06
       0.0965   3.72711e-06
       0.0966   3.72374e-06
       0.0967   3.72037e-06
       0.0968   3.71702e-06
       0.0969   3.71369e-06
        0.097   3.71036e-06
       0.0971   3.70704e-06
       0.0972   3.70374e-06
       0.0973   3.70045e-06
       0.0974   3.69716e-06
       0.0975   3.69389e-06
       0.0976   3.69063e-06
       0.0977   3.68739e-06
       0.0978   3.68415e-06
       0.0979   3.68092e-06
        0.098    3.6777e-06
       0.0981    3.6745e-06
       0.0982   3.67131e-06
       0.0983   3.66812e-06
       0.0984   3.66495e-06
       0.0985   3.66179e-06
       0.0986   3.65863e-06
       0.0987   3.65549e-06
       0.0988   3.65236e-06
       0.0989   3.64924e-06
        0.099   3.64613e-06
       0.0991   3.64303e-06
       0.0992   3.63994e-06
       0.0993   3.63686e-06
       0.0994   3.63379e-06
       0.0995   3.63073e-06
       0.0996   3.62768e-06
       0.0997   3.62464e-06
       0.0998   3.62161e-06
       0.0999   3.61859e-06
          0.1   3.61558e-06
