# Probe 0 (0.05 0.05 0.005)
#       Probe             0
#        Time
       0.0501   1.97284e+09
       0.0502   1.97388e+09
       0.0503   1.97492e+09
       0.0504   1.97596e+09
       0.0505   1.97699e+09
       0.0506   1.97802e+09
       0.0507   1.97904e+09
       0.0508   1.98006e+09
       0.0509   1.98107e+09
        0.051   1.98208e+09
       0.0511   1.98308e+09
       0.0512   1.98409e+09
       0.0513   1.98508e+09
       0.0514   1.98607e+09
       0.0515   1.98706e+09
       0.0516   1.98805e+09
       0.0517   1.98903e+09
       0.0518      1.99e+09
       0.0519   1.99097e+09
        0.052   1.99194e+09
       0.0521   1.99291e+09
       0.0522   1.99387e+09
       0.0523   1.99482e+09
       0.0524   1.99577e+09
       0.0525   1.99672e+09
       0.0526   1.99767e+09
       0.0527   1.99861e+09
       0.0528   1.99955e+09
       0.0529   2.00048e+09
        0.053   2.00141e+09
       0.0531   2.00234e+09
       0.0532   2.00326e+09
       0.0533   2.00418e+09
       0.0534   2.00509e+09
       0.0535   2.00601e+09
       0.0536   2.00691e+09
       0.0537   2.00782e+09
       0.0538   2.00872e+09
       0.0539   2.00962e+09
        0.054   2.01052e+09
       0.0541   2.01141e+09
       0.0542    2.0123e+09
       0.0543   2.01318e+09
       0.0544   2.01406e+09
       0.0545   2.01494e+09
       0.0546   2.01582e+09
       0.0547   2.01669e+09
       0.0548   2.01756e+09
       0.0549   2.01843e+09
        0.055   2.01929e+09
       0.0551   2.02015e+09
       0.0552   2.02101e+09
       0.0553   2.02186e+09
       0.0554   2.02271e+09
       0.0555   2.02356e+09
       0.0556    2.0244e+09
       0.0557   2.02524e+09
       0.0558   2.02608e+09
       0.0559   2.02692e+09
        0.056   2.02775e+09
       0.0561   2.02858e+09
       0.0562   2.02941e+09
       0.0563   2.03024e+09
       0.0564   2.03106e+09
       0.0565   2.03188e+09
       0.0566   2.03269e+09
       0.0567   2.03351e+09
       0.0568   2.03432e+09
       0.0569   2.03513e+09
        0.057   2.03593e+09
       0.0571   2.03674e+09
       0.0572   2.03754e+09
       0.0573   2.03833e+09
       0.0574   2.03913e+09
       0.0575   2.03992e+09
       0.0576   2.04071e+09
       0.0577    2.0415e+09
       0.0578   2.04229e+09
       0.0579   2.04307e+09
        0.058   2.04385e+09
       0.0581   2.04463e+09
       0.0582    2.0454e+09
       0.0583   2.04617e+09
       0.0584   2.04694e+09
       0.0585   2.04771e+09
       0.0586   2.04848e+09
       0.0587   2.04924e+09
       0.0588      2.05e+09
       0.0589   2.05076e+09
        0.059   2.05152e+09
       0.0591   2.05227e+09
       0.0592   2.05302e+09
       0.0593   2.05377e+09
       0.0594   2.05452e+09
       0.0595   2.05526e+09
       0.0596   2.05601e+09
       0.0597   2.05675e+09
       0.0598   2.05749e+09
       0.0599   2.05822e+09
         0.06   2.05896e+09
       0.0601   2.05969e+09
       0.0602   2.06042e+09
       0.0603   2.06114e+09
       0.0604   2.06187e+09
       0.0605   2.06259e+09
       0.0606   2.06332e+09
       0.0607   2.06403e+09
       0.0608   2.06475e+09
       0.0609   2.06547e+09
        0.061   2.06618e+09
       0.0611   2.06689e+09
       0.0612    2.0676e+09
       0.0613   2.06831e+09
       0.0614   2.06901e+09
       0.0615   2.06972e+09
       0.0616   2.07042e+09
       0.0617   2.07112e+09
       0.0618   2.07182e+09
       0.0619   2.07251e+09
        0.062   2.07321e+09
       0.0621    2.0739e+09
       0.0622   2.07459e+09
       0.0623   2.07528e+09
       0.0624   2.07596e+09
       0.0625   2.07665e+09
       0.0626   2.07733e+09
       0.0627   2.07801e+09
       0.0628   2.07869e+09
       0.0629   2.07937e+09
        0.063   2.08004e+09
       0.0631   2.08072e+09
       0.0632   2.08139e+09
       0.0633   2.08206e+09
       0.0634   2.08273e+09
       0.0635   2.08339e+09
       0.0636   2.08406e+09
       0.0637   2.08472e+09
       0.0638   2.08538e+09
       0.0639   2.08604e+09
        0.064    2.0867e+09
       0.0641   2.08736e+09
       0.0642   2.08801e+09
       0.0643   2.08867e+09
       0.0644   2.08932e+09
       0.0645   2.08997e+09
       0.0646   2.09062e+09
       0.0647   2.09126e+09
       0.0648   2.09191e+09
       0.0649   2.09255e+09
        0.065    2.0932e+09
       0.0651   2.09384e+09
       0.0652   2.09448e+09
       0.0653   2.09511e+09
       0.0654   2.09575e+09
       0.0655   2.09638e+09
       0.0656   2.09702e+09
       0.0657   2.09765e+09
       0.0658   2.09828e+09
       0.0659   2.09891e+09
        0.066   2.09953e+09
       0.0661   2.10016e+09
       0.0662   2.10078e+09
       0.0663   2.10141e+09
       0.0664   2.10203e+09
       0.0665   2.10265e+09
       0.0666   2.10327e+09
       0.0667   2.10388e+09
       0.0668    2.1045e+09
       0.0669   2.10511e+09
        0.067   2.10572e+09
       0.0671   2.10634e+09
       0.0672   2.10695e+09
       0.0673   2.10755e+09
       0.0674   2.10816e+09
       0.0675   2.10877e+09
       0.0676   2.10937e+09
       0.0677   2.10997e+09
       0.0678   2.11058e+09
       0.0679   2.11118e+09
        0.068   2.11177e+09
       0.0681   2.11237e+09
       0.0682   2.11297e+09
       0.0683   2.11356e+09
       0.0684   2.11416e+09
       0.0685   2.11475e+09
       0.0686   2.11534e+09
       0.0687   2.11593e+09
       0.0688   2.11652e+09
       0.0689   2.11711e+09
        0.069   2.11769e+09
       0.0691   2.11828e+09
       0.0692   2.11886e+09
       0.0693   2.11944e+09
       0.0694   2.12003e+09
       0.0695   2.12061e+09
       0.0696   2.12118e+09
       0.0697   2.12176e+09
       0.0698   2.12234e+09
       0.0699   2.12291e+09
         0.07   2.12349e+09
       0.0701   2.12406e+09
       0.0702   2.12463e+09
       0.0703    2.1252e+09
       0.0704   2.12577e+09
       0.0705   2.12634e+09
       0.0706   2.12691e+09
       0.0707   2.12747e+09
       0.0708   2.12804e+09
       0.0709    2.1286e+09
        0.071   2.12916e+09
       0.0711   2.12972e+09
       0.0712   2.13028e+09
       0.0713   2.13084e+09
       0.0714    2.1314e+09
       0.0715   2.13196e+09
       0.0716   2.13251e+09
       0.0717   2.13307e+09
       0.0718   2.13362e+09
       0.0719   2.13417e+09
        0.072   2.13472e+09
       0.0721   2.13527e+09
       0.0722   2.13582e+09
       0.0723   2.13637e+09
       0.0724   2.13692e+09
       0.0725   2.13746e+09
       0.0726   2.13801e+09
       0.0727   2.13855e+09
       0.0728    2.1391e+09
       0.0729   2.13964e+09
        0.073   2.14018e+09
       0.0731   2.14072e+09
       0.0732   2.14126e+09
       0.0733    2.1418e+09
       0.0734   2.14233e+09
       0.0735   2.14287e+09
       0.0736    2.1434e+09
       0.0737   2.14394e+09
       0.0738   2.14447e+09
       0.0739     2.145e+09
        0.074   2.14553e+09
       0.0741   2.14606e+09
       0.0742   2.14659e+09
       0.0743   2.14712e+09
       0.0744   2.14764e+09
       0.0745   2.14817e+09
       0.0746    2.1487e+09
       0.0747   2.14922e+09
       0.0748   2.14974e+09
       0.0749   2.15026e+09
        0.075   2.15079e+09
       0.0751   2.15131e+09
       0.0752   2.15183e+09
       0.0753   2.15234e+09
       0.0754   2.15286e+09
       0.0755   2.15338e+09
       0.0756   2.15389e+09
       0.0757   2.15441e+09
       0.0758   2.15492e+09
       0.0759   2.15544e+09
        0.076   2.15595e+09
       0.0761   2.15646e+09
       0.0762   2.15697e+09
       0.0763   2.15748e+09
       0.0764   2.15799e+09
       0.0765   2.15849e+09
       0.0766     2.159e+09
       0.0767   2.15951e+09
       0.0768   2.16001e+09
       0.0769   2.16052e+09
        0.077   2.16102e+09
       0.0771   2.16152e+09
       0.0772   2.16202e+09
       0.0773   2.16253e+09
       0.0774   2.16303e+09
       0.0775   2.16352e+09
       0.0776   2.16402e+09
       0.0777   2.16452e+09
       0.0778   2.16502e+09
       0.0779   2.16551e+09
        0.078   2.16601e+09
       0.0781    2.1665e+09
       0.0782     2.167e+09
       0.0783   2.16749e+09
       0.0784   2.16798e+09
       0.0785   2.16847e+09
       0.0786   2.16896e+09
       0.0787   2.16945e+09
       0.0788   2.16994e+09
       0.0789   2.17043e+09
        0.079   2.17091e+09
       0.0791    2.1714e+09
       0.0792   2.17188e+09
       0.0793   2.17237e+09
       0.0794   2.17285e+09
       0.0795   2.17334e+09
       0.0796   2.17382e+09
       0.0797    2.1743e+09
       0.0798   2.17478e+09
       0.0799   2.17526e+09
         0.08   2.17574e+09
       0.0801   2.17622e+09
       0.0802    2.1767e+09
       0.0803   2.17717e+09
       0.0804   2.17765e+09
       0.0805   2.17813e+09
       0.0806    2.1786e+09
       0.0807   2.17908e+09
       0.0808   2.17955e+09
       0.0809   2.18002e+09
        0.081   2.18049e+09
       0.0811   2.18096e+09
       0.0812   2.18143e+09
       0.0813    2.1819e+09
       0.0814   2.18237e+09
       0.0815   2.18284e+09
       0.0816   2.18331e+09
       0.0817   2.18378e+09
       0.0818   2.18424e+09
       0.0819   2.18471e+09
        0.082   2.18517e+09
       0.0821   2.18564e+09
       0.0822    2.1861e+09
       0.0823   2.18656e+09
       0.0824   2.18703e+09
       0.0825   2.18749e+09
       0.0826   2.18795e+09
       0.0827   2.18841e+09
       0.0828   2.18887e+09
       0.0829   2.18933e+09
        0.083   2.18978e+09
       0.0831   2.19024e+09
       0.0832    2.1907e+09
       0.0833   2.19115e+09
       0.0834   2.19161e+09
       0.0835   2.19206e+09
       0.0836   2.19252e+09
       0.0837   2.19297e+09
       0.0838   2.19343e+09
       0.0839   2.19388e+09
        0.084   2.19433e+09
       0.0841   2.19478e+09
       0.0842   2.19523e+09
       0.0843   2.19568e+09
       0.0844   2.19613e+09
       0.0845   2.19658e+09
       0.0846   2.19702e+09
       0.0847   2.19747e+09
       0.0848   2.19792e+09
       0.0849   2.19836e+09
        0.085   2.19881e+09
       0.0851   2.19925e+09
       0.0852    2.1997e+09
       0.0853   2.20014e+09
       0.0854   2.20058e+09
       0.0855   2.20103e+09
       0.0856   2.20147e+09
       0.0857   2.20191e+09
       0.0858   2.20235e+09
       0.0859   2.20279e+09
        0.086   2.20323e+09
       0.0861   2.20367e+09
       0.0862    2.2041e+09
       0.0863   2.20454e+09
       0.0864   2.20498e+09
       0.0865   2.20541e+09
       0.0866   2.20585e+09
       0.0867   2.20628e+09
       0.0868   2.20672e+09
       0.0869   2.20715e+09
        0.087   2.20759e+09
       0.0871   2.20802e+09
       0.0872   2.20845e+09
       0.0873   2.20888e+09
       0.0874   2.20931e+09
       0.0875   2.20974e+09
       0.0876   2.21017e+09
       0.0877    2.2106e+09
       0.0878   2.21103e+09
       0.0879   2.21146e+09
        0.088   2.21189e+09
       0.0881   2.21231e+09
       0.0882   2.21274e+09
       0.0883   2.21317e+09
       0.0884   2.21359e+09
       0.0885   2.21402e+09
       0.0886   2.21444e+09
       0.0887   2.21487e+09
       0.0888   2.21529e+09
       0.0889   2.21571e+09
        0.089   2.21613e+09
       0.0891   2.21655e+09
       0.0892   2.21698e+09
       0.0893    2.2174e+09
       0.0894   2.21782e+09
       0.0895   2.21824e+09
       0.0896   2.21865e+09
       0.0897   2.21907e+09
       0.0898   2.21949e+09
       0.0899   2.21991e+09
         0.09   2.22033e+09
       0.0901   2.22074e+09
       0.0902   2.22116e+09
       0.0903   2.22157e+09
       0.0904   2.22199e+09
       0.0905    2.2224e+09
       0.0906   2.22282e+09
       0.0907   2.22323e+09
       0.0908   2.22364e+09
       0.0909   2.22405e+09
        0.091   2.22447e+09
       0.0911   2.22488e+09
       0.0912   2.22529e+09
       0.0913    2.2257e+09
       0.0914   2.22611e+09
       0.0915   2.22652e+09
       0.0916   2.22693e+09
       0.0917   2.22733e+09
       0.0918   2.22774e+09
       0.0919   2.22815e+09
        0.092   2.22856e+09
       0.0921   2.22896e+09
       0.0922   2.22937e+09
       0.0923   2.22977e+09
       0.0924   2.23018e+09
       0.0925   2.23058e+09
       0.0926   2.23099e+09
       0.0927   2.23139e+09
       0.0928   2.23179e+09
       0.0929   2.23219e+09
        0.093    2.2326e+09
       0.0931     2.233e+09
       0.0932    2.2334e+09
       0.0933    2.2338e+09
       0.0934    2.2342e+09
       0.0935    2.2346e+09
       0.0936     2.235e+09
       0.0937    2.2354e+09
       0.0938    2.2358e+09
       0.0939   2.23619e+09
        0.094   2.23659e+09
       0.0941   2.23699e+09
       0.0942   2.23738e+09
       0.0943   2.23778e+09
       0.0944   2.23818e+09
       0.0945   2.23857e+09
       0.0946   2.23897e+09
       0.0947   2.23936e+09
       0.0948   2.23975e+09
       0.0949   2.24015e+09
        0.095   2.24054e+09
       0.0951   2.24093e+09
       0.0952   2.24132e+09
       0.0953   2.24172e+09
       0.0954   2.24211e+09
       0.0955    2.2425e+09
       0.0956   2.24289e+09
       0.0957   2.24328e+09
       0.0958   2.24367e+09
       0.0959   2.24406e+09
        0.096   2.24445e+09
       0.0961   2.24483e+09
       0.0962   2.24522e+09
       0.0963   2.24561e+09
       0.0964   2.24599e+09
       0.0965   2.24638e+09
       0.0966   2.24677e+09
       0.0967   2.24715e+09
       0.0968   2.24754e+09
       0.0969   2.24792e+09
        0.097   2.24831e+09
       0.0971   2.24869e+09
       0.0972   2.24907e+09
       0.0973   2.24946e+09
       0.0974   2.24984e+09
       0.0975   2.25022e+09
       0.0976    2.2506e+09
       0.0977   2.25099e+09
       0.0978   2.25137e+09
       0.0979   2.25175e+09
        0.098   2.25213e+09
       0.0981   2.25251e+09
       0.0982   2.25289e+09
       0.0983   2.25327e+09
       0.0984   2.25364e+09
       0.0985   2.25402e+09
       0.0986    2.2544e+09
       0.0987   2.25478e+09
       0.0988   2.25515e+09
       0.0989   2.25553e+09
        0.099   2.25591e+09
       0.0991   2.25628e+09
       0.0992   2.25666e+09
       0.0993   2.25703e+09
       0.0994   2.25741e+09
       0.0995   2.25778e+09
       0.0996   2.25816e+09
       0.0997   2.25853e+09
       0.0998    2.2589e+09
       0.0999   2.25928e+09
          0.1   2.25965e+09
