# Probe 0 (0.05 0.05 0.005)
#       Probe             0
#        Time
       0.0501       37.7906
       0.0502       37.7752
       0.0503         37.76
       0.0504       37.7447
       0.0505       37.7295
       0.0506       37.7144
       0.0507       37.6993
       0.0508       37.6842
       0.0509       37.6692
        0.051       37.6543
       0.0511       37.6393
       0.0512       37.6245
       0.0513       37.6096
       0.0514       37.5949
       0.0515       37.5801
       0.0516       37.5654
       0.0517       37.5508
       0.0518       37.5362
       0.0519       37.5216
        0.052       37.5071
       0.0521       37.4926
       0.0522       37.4782
       0.0523       37.4638
       0.0524       37.4495
       0.0525       37.4352
       0.0526        37.421
       0.0527       37.4068
       0.0528       37.3926
       0.0529       37.3785
        0.053       37.3644
       0.0531       37.3504
       0.0532       37.3364
       0.0533       37.3225
       0.0534       37.3086
       0.0535       37.2947
       0.0536       37.2809
       0.0537       37.2671
       0.0538       37.2534
       0.0539       37.2397
        0.054       37.2261
       0.0541       37.2125
       0.0542       37.1989
       0.0543       37.1854
       0.0544       37.1719
       0.0545       37.1585
       0.0546       37.1451
       0.0547       37.1318
       0.0548       37.1185
       0.0549       37.1052
        0.055        37.092
       0.0551       37.0788
       0.0552       37.0657
       0.0553       37.0526
       0.0554       37.0395
       0.0555       37.0265
       0.0556       37.0135
       0.0557       37.0006
       0.0558       36.9877
       0.0559       36.9748
        0.056        36.962
       0.0561       36.9492
       0.0562       36.9364
       0.0563       36.9237
       0.0564       36.9111
       0.0565       36.8984
       0.0566       36.8858
       0.0567       36.8733
       0.0568       36.8608
       0.0569       36.8483
        0.057       36.8359
       0.0571       36.8235
       0.0572       36.8111
       0.0573       36.7988
       0.0574       36.7865
       0.0575       36.7742
       0.0576        36.762
       0.0577       36.7498
       0.0578       36.7377
       0.0579       36.7256
        0.058       36.7135
       0.0581       36.7015
       0.0582       36.6895
       0.0583       36.6775
       0.0584       36.6656
       0.0585       36.6537
       0.0586       36.6418
       0.0587         36.63
       0.0588       36.6182
       0.0589       36.6064
        0.059       36.5947
       0.0591        36.583
       0.0592       36.5714
       0.0593       36.5598
       0.0594       36.5482
       0.0595       36.5366
       0.0596       36.5251
       0.0597       36.5136
       0.0598       36.5022
       0.0599       36.4907
         0.06       36.4793
       0.0601        36.468
       0.0602       36.4567
       0.0603       36.4454
       0.0604       36.4341
       0.0605       36.4229
       0.0606       36.4117
       0.0607       36.4005
       0.0608       36.3894
       0.0609       36.3783
        0.061       36.3672
       0.0611       36.3562
       0.0612       36.3452
       0.0613       36.3342
       0.0614       36.3232
       0.0615       36.3123
       0.0616       36.3014
       0.0617       36.2906
       0.0618       36.2797
       0.0619       36.2689
        0.062       36.2582
       0.0621       36.2474
       0.0622       36.2367
       0.0623        36.226
       0.0624       36.2154
       0.0625       36.2048
       0.0626       36.1942
       0.0627       36.1836
       0.0628       36.1731
       0.0629       36.1626
        0.063       36.1521
       0.0631       36.1416
       0.0632       36.1312
       0.0633       36.1208
       0.0634       36.1104
       0.0635       36.1001
       0.0636       36.0898
       0.0637       36.0795
       0.0638       36.0692
       0.0639        36.059
        0.064       36.0488
       0.0641       36.0386
       0.0642       36.0284
       0.0643       36.0183
       0.0644       36.0082
       0.0645       35.9981
       0.0646       35.9881
       0.0647        35.978
       0.0648        35.968
       0.0649       35.9581
        0.065       35.9481
       0.0651       35.9382
       0.0652       35.9283
       0.0653       35.9184
       0.0654       35.9086
       0.0655       35.8988
       0.0656        35.889
       0.0657       35.8792
       0.0658       35.8694
       0.0659       35.8597
        0.066         35.85
       0.0661       35.8403
       0.0662       35.8307
       0.0663       35.8211
       0.0664       35.8114
       0.0665       35.8019
       0.0666       35.7923
       0.0667       35.7828
       0.0668       35.7733
       0.0669       35.7638
        0.067       35.7543
       0.0671       35.7449
       0.0672       35.7355
       0.0673       35.7261
       0.0674       35.7167
       0.0675       35.7073
       0.0676        35.698
       0.0677       35.6887
       0.0678       35.6794
       0.0679       35.6702
        0.068       35.6609
       0.0681       35.6517
       0.0682       35.6425
       0.0683       35.6333
       0.0684       35.6242
       0.0685       35.6151
       0.0686       35.6059
       0.0687       35.5969
       0.0688       35.5878
       0.0689       35.5788
        0.069       35.5697
       0.0691       35.5607
       0.0692       35.5517
       0.0693       35.5428
       0.0694       35.5338
       0.0695       35.5249
       0.0696        35.516
       0.0697       35.5071
       0.0698       35.4983
       0.0699       35.4894
         0.07       35.4806
       0.0701       35.4718
       0.0702        35.463
       0.0703       35.4543
       0.0704       35.4456
       0.0705       35.4368
       0.0706       35.4281
       0.0707       35.4195
       0.0708       35.4108
       0.0709       35.4021
        0.071       35.3935
       0.0711       35.3849
       0.0712       35.3763
       0.0713       35.3678
       0.0714       35.3592
       0.0715       35.3507
       0.0716       35.3422
       0.0717       35.3337
       0.0718       35.3252
       0.0719       35.3168
        0.072       35.3083
       0.0721       35.2999
       0.0722       35.2915
       0.0723       35.2831
       0.0724       35.2748
       0.0725       35.2664
       0.0726       35.2581
       0.0727       35.2498
       0.0728       35.2415
       0.0729       35.2332
        0.073        35.225
       0.0731       35.2167
       0.0732       35.2085
       0.0733       35.2003
       0.0734       35.1921
       0.0735        35.184
       0.0736       35.1758
       0.0737       35.1677
       0.0738       35.1595
       0.0739       35.1514
        0.074       35.1434
       0.0741       35.1353
       0.0742       35.1272
       0.0743       35.1192
       0.0744       35.1112
       0.0745       35.1032
       0.0746       35.0952
       0.0747       35.0872
       0.0748       35.0793
       0.0749       35.0713
        0.075       35.0634
       0.0751       35.0555
       0.0752       35.0476
       0.0753       35.0398
       0.0754       35.0319
       0.0755       35.0241
       0.0756       35.0162
       0.0757       35.0084
       0.0758       35.0006
       0.0759       34.9929
        0.076       34.9851
       0.0761       34.9773
       0.0762       34.9696
       0.0763       34.9619
       0.0764       34.9542
       0.0765       34.9465
       0.0766       34.9388
       0.0767       34.9312
       0.0768       34.9235
       0.0769       34.9159
        0.077       34.9083
       0.0771       34.9007
       0.0772       34.8931
       0.0773       34.8856
       0.0774        34.878
       0.0775       34.8705
       0.0776       34.8629
       0.0777       34.8554
       0.0778       34.8479
       0.0779       34.8405
        0.078        34.833
       0.0781       34.8255
       0.0782       34.8181
       0.0783       34.8107
       0.0784       34.8033
       0.0785       34.7959
       0.0786       34.7885
       0.0787       34.7811
       0.0788       34.7738
       0.0789       34.7664
        0.079       34.7591
       0.0791       34.7518
       0.0792       34.7445
       0.0793       34.7372
       0.0794       34.7299
       0.0795       34.7227
       0.0796       34.7154
       0.0797       34.7082
       0.0798        34.701
       0.0799       34.6937
         0.08       34.6866
       0.0801       34.6794
       0.0802       34.6722
       0.0803       34.6651
       0.0804       34.6579
       0.0805       34.6508
       0.0806       34.6437
       0.0807       34.6366
       0.0808       34.6295
       0.0809       34.6224
        0.081       34.6153
       0.0811       34.6083
       0.0812       34.6012
       0.0813       34.5942
       0.0814       34.5872
       0.0815       34.5802
       0.0816       34.5732
       0.0817       34.5662
       0.0818       34.5593
       0.0819       34.5523
        0.082       34.5454
       0.0821       34.5384
       0.0822       34.5315
       0.0823       34.5246
       0.0824       34.5177
       0.0825       34.5109
       0.0826        34.504
       0.0827       34.4971
       0.0828       34.4903
       0.0829       34.4835
        0.083       34.4766
       0.0831       34.4698
       0.0832        34.463
       0.0833       34.4562
       0.0834       34.4495
       0.0835       34.4427
       0.0836        34.436
       0.0837       34.4292
       0.0838       34.4225
       0.0839       34.4158
        0.084       34.4091
       0.0841       34.4024
       0.0842       34.3957
       0.0843        34.389
       0.0844       34.3824
       0.0845       34.3757
       0.0846       34.3691
       0.0847       34.3624
       0.0848       34.3558
       0.0849       34.3492
        0.085       34.3426
       0.0851        34.336
       0.0852       34.3295
       0.0853       34.3229
       0.0854       34.3163
       0.0855       34.3098
       0.0856       34.3033
       0.0857       34.2968
       0.0858       34.2903
       0.0859       34.2838
        0.086       34.2773
       0.0861       34.2708
       0.0862       34.2643
       0.0863       34.2579
       0.0864       34.2514
       0.0865        34.245
       0.0866       34.2386
       0.0867       34.2321
       0.0868       34.2257
       0.0869       34.2193
        0.087        34.213
       0.0871       34.2066
       0.0872       34.2002
       0.0873       34.1939
       0.0874       34.1875
       0.0875       34.1812
       0.0876       34.1749
       0.0877       34.1686
       0.0878       34.1623
       0.0879        34.156
        0.088       34.1497
       0.0881       34.1434
       0.0882       34.1371
       0.0883       34.1309
       0.0884       34.1246
       0.0885       34.1184
       0.0886       34.1122
       0.0887        34.106
       0.0888       34.0998
       0.0889       34.0936
        0.089       34.0874
       0.0891       34.0812
       0.0892        34.075
       0.0893       34.0689
       0.0894       34.0627
       0.0895       34.0566
       0.0896       34.0504
       0.0897       34.0443
       0.0898       34.0382
       0.0899       34.0321
         0.09        34.026
       0.0901       34.0199
       0.0902       34.0139
       0.0903       34.0078
       0.0904       34.0017
       0.0905       33.9957
       0.0906       33.9896
       0.0907       33.9836
       0.0908       33.9776
       0.0909       33.9716
        0.091       33.9656
       0.0911       33.9596
       0.0912       33.9536
       0.0913       33.9476
       0.0914       33.9417
       0.0915       33.9357
       0.0916       33.9297
       0.0917       33.9238
       0.0918       33.9179
       0.0919       33.9119
        0.092        33.906
       0.0921       33.9001
       0.0922       33.8942
       0.0923       33.8883
       0.0924       33.8825
       0.0925       33.8766
       0.0926       33.8707
       0.0927       33.8649
       0.0928        33.859
       0.0929       33.8532
        0.093       33.8473
       0.0931       33.8415
       0.0932       33.8357
       0.0933       33.8299
       0.0934       33.8241
       0.0935       33.8183
       0.0936       33.8125
       0.0937       33.8068
       0.0938        33.801
       0.0939       33.7952
        0.094       33.7895
       0.0941       33.7837
       0.0942        33.778
       0.0943       33.7723
       0.0944       33.7666
       0.0945       33.7609
       0.0946       33.7552
       0.0947       33.7495
       0.0948       33.7438
       0.0949       33.7381
        0.095       33.7324
       0.0951       33.7268
       0.0952       33.7211
       0.0953       33.7155
       0.0954       33.7098
       0.0955       33.7042
       0.0956       33.6986
       0.0957        33.693
       0.0958       33.6874
       0.0959       33.6818
        0.096       33.6762
       0.0961       33.6706
       0.0962        33.665
       0.0963       33.6595
       0.0964       33.6539
       0.0965       33.6483
       0.0966       33.6428
       0.0967       33.6373
       0.0968       33.6317
       0.0969       33.6262
        0.097       33.6207
       0.0971       33.6152
       0.0972       33.6097
       0.0973       33.6042
       0.0974       33.5987
       0.0975       33.5932
       0.0976       33.5877
       0.0977       33.5823
       0.0978       33.5768
       0.0979       33.5714
        0.098       33.5659
       0.0981       33.5605
       0.0982       33.5551
       0.0983       33.5496
       0.0984       33.5442
       0.0985       33.5388
       0.0986       33.5334
       0.0987        33.528
       0.0988       33.5226
       0.0989       33.5173
        0.099       33.5119
       0.0991       33.5065
       0.0992       33.5012
       0.0993       33.4958
       0.0994       33.4905
       0.0995       33.4851
       0.0996       33.4798
       0.0997       33.4745
       0.0998       33.4692
       0.0999       33.4638
          0.1       33.4585
