# Probe 0 (0.05 0.05 0.005)
#       Probe             0
#        Time
       0.0501        273047
       0.0502        273064
       0.0503        273081
       0.0504        273097
       0.0505        273113
       0.0506        273130
       0.0507        273145
       0.0508        273161
       0.0509        273177
        0.051        273192
       0.0511        273207
       0.0512        273222
       0.0513        273237
       0.0514        273251
       0.0515        273265
       0.0516        273280
       0.0517        273294
       0.0518        273308
       0.0519        273321
        0.052        273335
       0.0521        273348
       0.0522        273361
       0.0523        273375
       0.0524        273387
       0.0525        273400
       0.0526        273413
       0.0527        273425
       0.0528        273438
       0.0529        273450
        0.053        273462
       0.0531        273474
       0.0532        273486
       0.0533        273497
       0.0534        273509
       0.0535        273520
       0.0536        273532
       0.0537        273543
       0.0538        273554
       0.0539        273565
        0.054        273576
       0.0541        273586
       0.0542        273597
       0.0543        273607
       0.0544        273618
       0.0545        273628
       0.0546        273638
       0.0547        273648
       0.0548        273658
       0.0549        273668
        0.055        273678
       0.0551        273687
       0.0552        273697
       0.0553        273706
       0.0554        273715
       0.0555        273725
       0.0556        273734
       0.0557        273743
       0.0558        273752
       0.0559        273761
        0.056        273770
       0.0561        273778
       0.0562        273787
       0.0563        273795
       0.0564        273804
       0.0565        273812
       0.0566        273820
       0.0567        273829
       0.0568        273837
       0.0569        273845
        0.057        273853
       0.0571        273861
       0.0572        273869
       0.0573        273876
       0.0574        273884
       0.0575        273892
       0.0576        273899
       0.0577        273907
       0.0578        273914
       0.0579        273921
        0.058        273928
       0.0581        273936
       0.0582        273943
       0.0583        273950
       0.0584        273957
       0.0585        273964
       0.0586        273971
       0.0587        273978
       0.0588        273984
       0.0589        273991
        0.059        273998
       0.0591        274004
       0.0592        274011
       0.0593        274017
       0.0594        274024
       0.0595        274030
       0.0596        274036
       0.0597        274042
       0.0598        274049
       0.0599        274055
         0.06        274061
       0.0601        274067
       0.0602        274073
       0.0603        274079
       0.0604        274085
       0.0605        274091
       0.0606        274096
       0.0607        274102
       0.0608        274108
       0.0609        274113
        0.061        274119
       0.0611        274125
       0.0612        274130
       0.0613        274136
       0.0614        274141
       0.0615        274146
       0.0616        274152
       0.0617        274157
       0.0618        274162
       0.0619        274167
        0.062        274173
       0.0621        274178
       0.0622        274183
       0.0623        274188
       0.0624        274193
       0.0625        274198
       0.0626        274203
       0.0627        274208
       0.0628        274213
       0.0629        274217
        0.063        274222
       0.0631        274227
       0.0632        274232
       0.0633        274236
       0.0634        274241
       0.0635        274246
       0.0636        274250
       0.0637        274255
       0.0638        274259
       0.0639        274264
        0.064        274268
       0.0641        274273
       0.0642        274277
       0.0643        274281
       0.0644        274286
       0.0645        274290
       0.0646        274294
       0.0647        274298
       0.0648        274303
       0.0649        274307
        0.065        274311
       0.0651        274315
       0.0652        274319
       0.0653        274323
       0.0654        274327
       0.0655        274331
       0.0656        274335
       0.0657        274339
       0.0658        274343
       0.0659        274347
        0.066        274351
       0.0661        274355
       0.0662        274358
       0.0663        274362
       0.0664        274366
       0.0665        274370
       0.0666        274373
       0.0667        274377
       0.0668        274381
       0.0669        274384
        0.067        274388
       0.0671        274391
       0.0672        274395
       0.0673        274399
       0.0674        274402
       0.0675        274406
       0.0676        274409
       0.0677        274413
       0.0678        274416
       0.0679        274419
        0.068        274423
       0.0681        274426
       0.0682        274429
       0.0683        274433
       0.0684        274436
       0.0685        274439
       0.0686        274443
       0.0687        274446
       0.0688        274449
       0.0689        274452
        0.069        274455
       0.0691        274459
       0.0692        274462
       0.0693        274465
       0.0694        274468
       0.0695        274471
       0.0696        274474
       0.0697        274477
       0.0698        274480
       0.0699        274483
         0.07        274486
       0.0701        274489
       0.0702        274492
       0.0703        274495
       0.0704        274498
       0.0705        274501
       0.0706        274504
       0.0707        274507
       0.0708        274509
       0.0709        274512
        0.071        274515
       0.0711        274518
       0.0712        274521
       0.0713        274523
       0.0714        274526
       0.0715        274529
       0.0716        274532
       0.0717        274534
       0.0718        274537
       0.0719        274540
        0.072        274542
       0.0721        274545
       0.0722        274548
       0.0723        274550
       0.0724        274553
       0.0725        274556
       0.0726        274558
       0.0727        274561
       0.0728        274563
       0.0729        274566
        0.073        274568
       0.0731        274571
       0.0732        274573
       0.0733        274576
       0.0734        274578
       0.0735        274581
       0.0736        274583
       0.0737        274586
       0.0738        274588
       0.0739        274590
        0.074        274593
       0.0741        274595
       0.0742        274597
       0.0743        274600
       0.0744        274602
       0.0745        274605
       0.0746        274607
       0.0747        274609
       0.0748        274611
       0.0749        274614
        0.075        274616
       0.0751        274618
       0.0752        274620
       0.0753        274623
       0.0754        274625
       0.0755        274627
       0.0756        274629
       0.0757        274632
       0.0758        274634
       0.0759        274636
        0.076        274638
       0.0761        274640
       0.0762        274642
       0.0763        274644
       0.0764        274647
       0.0765        274649
       0.0766        274651
       0.0767        274653
       0.0768        274655
       0.0769        274657
        0.077        274659
       0.0771        274661
       0.0772        274663
       0.0773        274665
       0.0774        274667
       0.0775        274669
       0.0776        274671
       0.0777        274673
       0.0778        274675
       0.0779        274677
        0.078        274679
       0.0781        274681
       0.0782        274683
       0.0783        274685
       0.0784        274687
       0.0785        274689
       0.0786        274690
       0.0787        274692
       0.0788        274694
       0.0789        274696
        0.079        274698
       0.0791        274700
       0.0792        274702
       0.0793        274704
       0.0794        274705
       0.0795        274707
       0.0796        274709
       0.0797        274711
       0.0798        274713
       0.0799        274714
         0.08        274716
       0.0801        274718
       0.0802        274720
       0.0803        274721
       0.0804        274723
       0.0805        274725
       0.0806        274727
       0.0807        274728
       0.0808        274730
       0.0809        274732
        0.081        274734
       0.0811        274735
       0.0812        274737
       0.0813        274739
       0.0814        274740
       0.0815        274742
       0.0816        274744
       0.0817        274745
       0.0818        274747
       0.0819        274749
        0.082        274750
       0.0821        274752
       0.0822        274753
       0.0823        274755
       0.0824        274757
       0.0825        274758
       0.0826        274760
       0.0827        274761
       0.0828        274763
       0.0829        274765
        0.083        274766
       0.0831        274768
       0.0832        274769
       0.0833        274771
       0.0834        274772
       0.0835        274774
       0.0836        274775
       0.0837        274777
       0.0838        274778
       0.0839        274780
        0.084        274781
       0.0841        274783
       0.0842        274784
       0.0843        274786
       0.0844        274787
       0.0845        274789
       0.0846        274790
       0.0847        274792
       0.0848        274793
       0.0849        274795
        0.085        274796
       0.0851        274797
       0.0852        274799
       0.0853        274800
       0.0854        274802
       0.0855        274803
       0.0856        274805
       0.0857        274806
       0.0858        274807
       0.0859        274809
        0.086        274810
       0.0861        274812
       0.0862        274813
       0.0863        274814
       0.0864        274816
       0.0865        274817
       0.0866        274818
       0.0867        274820
       0.0868        274821
       0.0869        274822
        0.087        274824
       0.0871        274825
       0.0872        274826
       0.0873        274828
       0.0874        274829
       0.0875        274830
       0.0876        274832
       0.0877        274833
       0.0878        274834
       0.0879        274835
        0.088        274837
       0.0881        274838
       0.0882        274839
       0.0883        274841
       0.0884        274842
       0.0885        274843
       0.0886        274844
       0.0887        274846
       0.0888        274847
       0.0889        274848
        0.089        274849
       0.0891        274851
       0.0892        274852
       0.0893        274853
       0.0894        274854
       0.0895        274855
       0.0896        274857
       0.0897        274858
       0.0898        274859
       0.0899        274860
         0.09        274861
       0.0901        274863
       0.0902        274864
       0.0903        274865
       0.0904        274866
       0.0905        274867
       0.0906        274869
       0.0907        274870
       0.0908        274871
       0.0909        274872
        0.091        274873
       0.0911        274874
       0.0912        274875
       0.0913        274877
       0.0914        274878
       0.0915        274879
       0.0916        274880
       0.0917        274881
       0.0918        274882
       0.0919        274883
        0.092        274884
       0.0921        274886
       0.0922        274887
       0.0923        274888
       0.0924        274889
       0.0925        274890
       0.0926        274891
       0.0927        274892
       0.0928        274893
       0.0929        274894
        0.093        274895
       0.0931        274896
       0.0932        274898
       0.0933        274899
       0.0934        274900
       0.0935        274901
       0.0936        274902
       0.0937        274903
       0.0938        274904
       0.0939        274905
        0.094        274906
       0.0941        274907
       0.0942        274908
       0.0943        274909
       0.0944        274910
       0.0945        274911
       0.0946        274912
       0.0947        274913
       0.0948        274914
       0.0949        274915
        0.095        274916
       0.0951        274917
       0.0952        274918
       0.0953        274919
       0.0954        274920
       0.0955        274921
       0.0956        274922
       0.0957        274923
       0.0958        274924
       0.0959        274925
        0.096        274926
       0.0961        274927
       0.0962        274928
       0.0963        274929
       0.0964        274930
       0.0965        274931
       0.0966        274932
       0.0967        274933
       0.0968        274934
       0.0969        274935
        0.097        274936
       0.0971        274937
       0.0972        274938
       0.0973        274938
       0.0974        274939
       0.0975        274940
       0.0976        274941
       0.0977        274942
       0.0978        274943
       0.0979        274944
        0.098        274945
       0.0981        274946
       0.0982        274947
       0.0983        274948
       0.0984        274949
       0.0985        274950
       0.0986        274950
       0.0987        274951
       0.0988        274952
       0.0989        274953
        0.099        274954
       0.0991        274955
       0.0992        274956
       0.0993        274957
       0.0994        274958
       0.0995        274958
       0.0996        274959
       0.0997        274960
       0.0998        274961
       0.0999        274962
          0.1        274963
