# Probe 0 (0.05 0.05 0.005)
#       Probe             0
#        Time
       0.0501   8.55918e-06
       0.0502    8.5027e-06
       0.0503   8.44698e-06
       0.0504   8.39202e-06
       0.0505   8.33779e-06
       0.0506    8.2843e-06
       0.0507   8.23152e-06
       0.0508   8.17944e-06
       0.0509   8.12805e-06
        0.051   8.07733e-06
       0.0511   8.02729e-06
       0.0512   7.97789e-06
       0.0513   7.92914e-06
       0.0514   7.88102e-06
       0.0515   7.83352e-06
       0.0516   7.78663e-06
       0.0517   7.74034e-06
       0.0518   7.69464e-06
       0.0519   7.64952e-06
        0.052   7.60497e-06
       0.0521   7.56098e-06
       0.0522   7.51753e-06
       0.0523   7.47463e-06
       0.0524   7.43226e-06
       0.0525   7.39042e-06
       0.0526   7.34909e-06
       0.0527   7.30826e-06
       0.0528   7.26793e-06
       0.0529   7.22809e-06
        0.053   7.18874e-06
       0.0531   7.14986e-06
       0.0532   7.11144e-06
       0.0533   7.07348e-06
       0.0534   7.03597e-06
       0.0535   6.99891e-06
       0.0536   6.96228e-06
       0.0537   6.92608e-06
       0.0538   6.89031e-06
       0.0539   6.85495e-06
        0.054      6.82e-06
       0.0541   6.78546e-06
       0.0542   6.75131e-06
       0.0543   6.71755e-06
       0.0544   6.68418e-06
       0.0545   6.65118e-06
       0.0546   6.61856e-06
       0.0547    6.5863e-06
       0.0548   6.55441e-06
       0.0549   6.52287e-06
        0.055   6.49168e-06
       0.0551   6.46084e-06
       0.0552   6.43034e-06
       0.0553   6.40017e-06
       0.0554   6.37033e-06
       0.0555   6.34081e-06
       0.0556   6.31162e-06
       0.0557   6.28274e-06
       0.0558   6.25417e-06
       0.0559   6.22591e-06
        0.056   6.19794e-06
       0.0561   6.17028e-06
       0.0562   6.14291e-06
       0.0563   6.11582e-06
       0.0564   6.08902e-06
       0.0565    6.0625e-06
       0.0566   6.03626e-06
       0.0567   6.01028e-06
       0.0568   5.98458e-06
       0.0569   5.95914e-06
        0.057   5.93396e-06
       0.0571   5.90904e-06
       0.0572   5.88437e-06
       0.0573   5.85994e-06
       0.0574   5.83577e-06
       0.0575   5.81184e-06
       0.0576   5.78814e-06
       0.0577   5.76469e-06
       0.0578   5.74146e-06
       0.0579   5.71847e-06
        0.058    5.6957e-06
       0.0581   5.67315e-06
       0.0582   5.65083e-06
       0.0583   5.62872e-06
       0.0584   5.60683e-06
       0.0585   5.58514e-06
       0.0586   5.56367e-06
       0.0587    5.5424e-06
       0.0588   5.52133e-06
       0.0589   5.50047e-06
        0.059    5.4798e-06
       0.0591   5.45932e-06
       0.0592   5.43904e-06
       0.0593   5.41895e-06
       0.0594   5.39904e-06
       0.0595   5.37932e-06
       0.0596   5.35979e-06
       0.0597   5.34043e-06
       0.0598   5.32125e-06
       0.0599   5.30224e-06
         0.06   5.28341e-06
       0.0601   5.26475e-06
       0.0602   5.24626e-06
       0.0603   5.22793e-06
       0.0604   5.20977e-06
       0.0605   5.19177e-06
       0.0606   5.17393e-06
       0.0607   5.15625e-06
       0.0608   5.13873e-06
       0.0609   5.12136e-06
        0.061   5.10414e-06
       0.0611   5.08708e-06
       0.0612   5.07016e-06
       0.0613   5.05339e-06
       0.0614   5.03676e-06
       0.0615   5.02028e-06
       0.0616   5.00394e-06
       0.0617   4.98773e-06
       0.0618   4.97167e-06
       0.0619   4.95574e-06
        0.062   4.93995e-06
       0.0621   4.92429e-06
       0.0622   4.90876e-06
       0.0623   4.89336e-06
       0.0624   4.87809e-06
       0.0625   4.86295e-06
       0.0626   4.84793e-06
       0.0627   4.83304e-06
       0.0628   4.81827e-06
       0.0629   4.80362e-06
        0.063   4.78909e-06
       0.0631   4.77467e-06
       0.0632   4.76038e-06
       0.0633    4.7462e-06
       0.0634   4.73213e-06
       0.0635   4.71818e-06
       0.0636   4.70434e-06
       0.0637   4.69061e-06
       0.0638   4.67698e-06
       0.0639   4.66347e-06
        0.064   4.65006e-06
       0.0641   4.63676e-06
       0.0642   4.62356e-06
       0.0643   4.61046e-06
       0.0644   4.59747e-06
       0.0645   4.58457e-06
       0.0646   4.57178e-06
       0.0647   4.55908e-06
       0.0648   4.54649e-06
       0.0649   4.53398e-06
        0.065   4.52158e-06
       0.0651   4.50926e-06
       0.0652   4.49704e-06
       0.0653   4.48492e-06
       0.0654   4.47288e-06
       0.0655   4.46093e-06
       0.0656   4.44908e-06
       0.0657   4.43731e-06
       0.0658   4.42563e-06
       0.0659   4.41403e-06
        0.066   4.40252e-06
       0.0661    4.3911e-06
       0.0662   4.37975e-06
       0.0663   4.36849e-06
       0.0664   4.35732e-06
       0.0665   4.34622e-06
       0.0666    4.3352e-06
       0.0667   4.32427e-06
       0.0668   4.31341e-06
       0.0669   4.30263e-06
        0.067   4.29192e-06
       0.0671    4.2813e-06
       0.0672   4.27074e-06
       0.0673   4.26027e-06
       0.0674   4.24986e-06
       0.0675   4.23953e-06
       0.0676   4.22927e-06
       0.0677   4.21908e-06
       0.0678   4.20897e-06
       0.0679   4.19892e-06
        0.068   4.18894e-06
       0.0681   4.17903e-06
       0.0682   4.16919e-06
       0.0683   4.15942e-06
       0.0684   4.14971e-06
       0.0685   4.14007e-06
       0.0686   4.13049e-06
       0.0687   4.12098e-06
       0.0688   4.11153e-06
       0.0689   4.10215e-06
        0.069   4.09283e-06
       0.0691   4.08357e-06
       0.0692   4.07437e-06
       0.0693   4.06524e-06
       0.0694   4.05616e-06
       0.0695   4.04714e-06
       0.0696   4.03819e-06
       0.0697   4.02929e-06
       0.0698   4.02045e-06
       0.0699   4.01166e-06
         0.07   4.00294e-06
       0.0701   3.99427e-06
       0.0702   3.98565e-06
       0.0703    3.9771e-06
       0.0704   3.96859e-06
       0.0705   3.96014e-06
       0.0706   3.95175e-06
       0.0707   3.94341e-06
       0.0708   3.93512e-06
       0.0709   3.92688e-06
        0.071   3.91869e-06
       0.0711   3.91056e-06
       0.0712   3.90248e-06
       0.0713   3.89445e-06
       0.0714   3.88646e-06
       0.0715   3.87853e-06
       0.0716   3.87065e-06
       0.0717   3.86281e-06
       0.0718   3.85502e-06
       0.0719   3.84729e-06
        0.072   3.83959e-06
       0.0721   3.83195e-06
       0.0722   3.82435e-06
       0.0723    3.8168e-06
       0.0724   3.80929e-06
       0.0725   3.80183e-06
       0.0726   3.79441e-06
       0.0727   3.78704e-06
       0.0728   3.77971e-06
       0.0729   3.77242e-06
        0.073   3.76518e-06
       0.0731   3.75798e-06
       0.0732   3.75083e-06
       0.0733   3.74371e-06
       0.0734   3.73664e-06
       0.0735   3.72961e-06
       0.0736   3.72262e-06
       0.0737   3.71567e-06
       0.0738   3.70876e-06
       0.0739   3.70189e-06
        0.074   3.69506e-06
       0.0741   3.68827e-06
       0.0742   3.68152e-06
       0.0743   3.67481e-06
       0.0744   3.66814e-06
       0.0745    3.6615e-06
       0.0746    3.6549e-06
       0.0747   3.64834e-06
       0.0748   3.64182e-06
       0.0749   3.63533e-06
        0.075   3.62888e-06
       0.0751   3.62247e-06
       0.0752   3.61609e-06
       0.0753   3.60974e-06
       0.0754   3.60343e-06
       0.0755   3.59716e-06
       0.0756   3.59092e-06
       0.0757   3.58472e-06
       0.0758   3.57855e-06
       0.0759   3.57241e-06
        0.076   3.56631e-06
       0.0761   3.56024e-06
       0.0762    3.5542e-06
       0.0763    3.5482e-06
       0.0764   3.54223e-06
       0.0765   3.53629e-06
       0.0766   3.53038e-06
       0.0767   3.52451e-06
       0.0768   3.51866e-06
       0.0769   3.51285e-06
        0.077   3.50707e-06
       0.0771   3.50132e-06
       0.0772    3.4956e-06
       0.0773   3.48991e-06
       0.0774   3.48425e-06
       0.0775   3.47862e-06
       0.0776   3.47301e-06
       0.0777   3.46744e-06
       0.0778    3.4619e-06
       0.0779   3.45638e-06
        0.078    3.4509e-06
       0.0781   3.44544e-06
       0.0782   3.44001e-06
       0.0783   3.43461e-06
       0.0784   3.42924e-06
       0.0785   3.42389e-06
       0.0786   3.41857e-06
       0.0787   3.41328e-06
       0.0788   3.40802e-06
       0.0789   3.40278e-06
        0.079   3.39757e-06
       0.0791   3.39238e-06
       0.0792   3.38722e-06
       0.0793   3.38209e-06
       0.0794   3.37698e-06
       0.0795    3.3719e-06
       0.0796   3.36684e-06
       0.0797   3.36181e-06
       0.0798    3.3568e-06
       0.0799   3.35182e-06
         0.08   3.34687e-06
       0.0801   3.34193e-06
       0.0802   3.33702e-06
       0.0803   3.33214e-06
       0.0804   3.32728e-06
       0.0805   3.32244e-06
       0.0806   3.31763e-06
       0.0807   3.31284e-06
       0.0808   3.30807e-06
       0.0809   3.30332e-06
        0.081    3.2986e-06
       0.0811    3.2939e-06
       0.0812   3.28923e-06
       0.0813   3.28457e-06
       0.0814   3.27994e-06
       0.0815   3.27533e-06
       0.0816   3.27074e-06
       0.0817   3.26618e-06
       0.0818   3.26163e-06
       0.0819   3.25711e-06
        0.082   3.25261e-06
       0.0821   3.24812e-06
       0.0822   3.24366e-06
       0.0823   3.23922e-06
       0.0824   3.23481e-06
       0.0825   3.23041e-06
       0.0826   3.22603e-06
       0.0827   3.22167e-06
       0.0828   3.21733e-06
       0.0829   3.21302e-06
        0.083   3.20872e-06
       0.0831   3.20444e-06
       0.0832   3.20018e-06
       0.0833   3.19594e-06
       0.0834   3.19172e-06
       0.0835   3.18752e-06
       0.0836   3.18334e-06
       0.0837   3.17918e-06
       0.0838   3.17503e-06
       0.0839   3.17091e-06
        0.084    3.1668e-06
       0.0841   3.16271e-06
       0.0842   3.15864e-06
       0.0843   3.15459e-06
       0.0844   3.15055e-06
       0.0845   3.14654e-06
       0.0846   3.14254e-06
       0.0847   3.13856e-06
       0.0848   3.13459e-06
       0.0849   3.13065e-06
        0.085   3.12672e-06
       0.0851    3.1228e-06
       0.0852   3.11891e-06
       0.0853   3.11503e-06
       0.0854   3.11117e-06
       0.0855   3.10733e-06
       0.0856    3.1035e-06
       0.0857   3.09969e-06
       0.0858   3.09589e-06
       0.0859   3.09211e-06
        0.086   3.08835e-06
       0.0861    3.0846e-06
       0.0862   3.08087e-06
       0.0863   3.07716e-06
       0.0864   3.07346e-06
       0.0865   3.06978e-06
       0.0866   3.06611e-06
       0.0867   3.06246e-06
       0.0868   3.05882e-06
       0.0869    3.0552e-06
        0.087   3.05159e-06
       0.0871     3.048e-06
       0.0872   3.04443e-06
       0.0873   3.04086e-06
       0.0874   3.03732e-06
       0.0875   3.03379e-06
       0.0876   3.03027e-06
       0.0877   3.02677e-06
       0.0878   3.02328e-06
       0.0879    3.0198e-06
        0.088   3.01634e-06
       0.0881    3.0129e-06
       0.0882   3.00947e-06
       0.0883   3.00605e-06
       0.0884   3.00265e-06
       0.0885   2.99926e-06
       0.0886   2.99588e-06
       0.0887   2.99252e-06
       0.0888   2.98917e-06
       0.0889   2.98583e-06
        0.089   2.98251e-06
       0.0891    2.9792e-06
       0.0892   2.97591e-06
       0.0893   2.97262e-06
       0.0894   2.96935e-06
       0.0895    2.9661e-06
       0.0896   2.96285e-06
       0.0897   2.95962e-06
       0.0898   2.95641e-06
       0.0899    2.9532e-06
         0.09   2.95001e-06
       0.0901   2.94683e-06
       0.0902   2.94366e-06
       0.0903    2.9405e-06
       0.0904   2.93736e-06
       0.0905   2.93423e-06
       0.0906   2.93111e-06
       0.0907   2.92801e-06
       0.0908   2.92491e-06
       0.0909   2.92183e-06
        0.091   2.91876e-06
       0.0911    2.9157e-06
       0.0912   2.91265e-06
       0.0913   2.90962e-06
       0.0914   2.90659e-06
       0.0915   2.90358e-06
       0.0916   2.90058e-06
       0.0917   2.89759e-06
       0.0918   2.89461e-06
       0.0919   2.89164e-06
        0.092   2.88869e-06
       0.0921   2.88574e-06
       0.0922   2.88281e-06
       0.0923   2.87989e-06
       0.0924   2.87698e-06
       0.0925   2.87407e-06
       0.0926   2.87118e-06
       0.0927   2.86831e-06
       0.0928   2.86544e-06
       0.0929   2.86258e-06
        0.093   2.85973e-06
       0.0931   2.85689e-06
       0.0932   2.85407e-06
       0.0933   2.85125e-06
       0.0934   2.84845e-06
       0.0935   2.84565e-06
       0.0936   2.84287e-06
       0.0937   2.84009e-06
       0.0938   2.83733e-06
       0.0939   2.83457e-06
        0.094   2.83183e-06
       0.0941   2.82909e-06
       0.0942   2.82637e-06
       0.0943   2.82365e-06
       0.0944   2.82095e-06
       0.0945   2.81825e-06
       0.0946   2.81556e-06
       0.0947   2.81289e-06
       0.0948   2.81022e-06
       0.0949   2.80756e-06
        0.095   2.80491e-06
       0.0951   2.80228e-06
       0.0952   2.79965e-06
       0.0953   2.79703e-06
       0.0954   2.79442e-06
       0.0955   2.79182e-06
       0.0956   2.78922e-06
       0.0957   2.78664e-06
       0.0958   2.78407e-06
       0.0959    2.7815e-06
        0.096   2.77894e-06
       0.0961    2.7764e-06
       0.0962   2.77386e-06
       0.0963   2.77133e-06
       0.0964   2.76881e-06
       0.0965    2.7663e-06
       0.0966   2.76379e-06
       0.0967    2.7613e-06
       0.0968   2.75881e-06
       0.0969   2.75633e-06
        0.097   2.75386e-06
       0.0971    2.7514e-06
       0.0972   2.74895e-06
       0.0973   2.74651e-06
       0.0974   2.74407e-06
       0.0975   2.74164e-06
       0.0976   2.73922e-06
       0.0977   2.73681e-06
       0.0978   2.73441e-06
       0.0979   2.73202e-06
        0.098   2.72963e-06
       0.0981   2.72725e-06
       0.0982   2.72488e-06
       0.0983   2.72252e-06
       0.0984   2.72016e-06
       0.0985   2.71782e-06
       0.0986   2.71548e-06
       0.0987   2.71314e-06
       0.0988   2.71082e-06
       0.0989    2.7085e-06
        0.099    2.7062e-06
       0.0991    2.7039e-06
       0.0992    2.7016e-06
       0.0993   2.69932e-06
       0.0994   2.69704e-06
       0.0995   2.69477e-06
       0.0996    2.6925e-06
       0.0997   2.69025e-06
       0.0998     2.688e-06
       0.0999   2.68576e-06
          0.1   2.68352e-06
