# Probe 0 (0.05 0.05 0.005)
#       Probe             0
#        Time
       0.0501   1.04749e+10
       0.0502   1.04287e+10
       0.0503   1.03829e+10
       0.0504   1.03376e+10
       0.0505   1.02926e+10
       0.0506    1.0248e+10
       0.0507   1.02038e+10
       0.0508     1.016e+10
       0.0509   1.01166e+10
        0.051   1.00736e+10
       0.0511   1.00309e+10
       0.0512   9.98864e+09
       0.0513   9.94671e+09
       0.0514   9.90514e+09
       0.0515   9.86393e+09
       0.0516   9.82306e+09
       0.0517   9.78255e+09
       0.0518   9.74238e+09
       0.0519   9.70255e+09
        0.052   9.66306e+09
       0.0521    9.6239e+09
       0.0522   9.58508e+09
       0.0523   9.54657e+09
       0.0524   9.50839e+09
       0.0525   9.47053e+09
       0.0526   9.43298e+09
       0.0527   9.39575e+09
       0.0528   9.35882e+09
       0.0529    9.3222e+09
        0.053   9.28588e+09
       0.0531   9.24986e+09
       0.0532   9.21413e+09
       0.0533   9.17869e+09
       0.0534   9.14355e+09
       0.0535   9.10869e+09
       0.0536   9.07411e+09
       0.0537   9.03981e+09
       0.0538   9.00578e+09
       0.0539   8.97203e+09
        0.054   8.93855e+09
       0.0541   8.90534e+09
       0.0542   8.87239e+09
       0.0543   8.83971e+09
       0.0544   8.80728e+09
       0.0545   8.77511e+09
       0.0546   8.74319e+09
       0.0547   8.71153e+09
       0.0548   8.68011e+09
       0.0549   8.64893e+09
        0.055     8.618e+09
       0.0551   8.58731e+09
       0.0552   8.55686e+09
       0.0553   8.52664e+09
       0.0554   8.49666e+09
       0.0555    8.4669e+09
       0.0556   8.43738e+09
       0.0557   8.40808e+09
       0.0558     8.379e+09
       0.0559   8.35014e+09
        0.056    8.3215e+09
       0.0561   8.29308e+09
       0.0562   8.26487e+09
       0.0563   8.23687e+09
       0.0564   8.20908e+09
       0.0565    8.1815e+09
       0.0566   8.15413e+09
       0.0567   8.12695e+09
       0.0568   8.09998e+09
       0.0569   8.07321e+09
        0.057   8.04663e+09
       0.0571   8.02025e+09
       0.0572   7.99407e+09
       0.0573   7.96807e+09
       0.0574   7.94226e+09
       0.0575   7.91664e+09
       0.0576   7.89121e+09
       0.0577   7.86596e+09
       0.0578   7.84088e+09
       0.0579   7.81599e+09
        0.058   7.79128e+09
       0.0581   7.76674e+09
       0.0582   7.74238e+09
       0.0583   7.71819e+09
       0.0584   7.69417e+09
       0.0585   7.67032e+09
       0.0586   7.64664e+09
       0.0587   7.62313e+09
       0.0588   7.59977e+09
       0.0589   7.57659e+09
        0.059   7.55356e+09
       0.0591   7.53069e+09
       0.0592   7.50798e+09
       0.0593   7.48542e+09
       0.0594   7.46302e+09
       0.0595   7.44078e+09
       0.0596   7.41868e+09
       0.0597   7.39674e+09
       0.0598   7.37494e+09
       0.0599    7.3533e+09
         0.06    7.3318e+09
       0.0601   7.31044e+09
       0.0602   7.28923e+09
       0.0603   7.26815e+09
       0.0604   7.24722e+09
       0.0605   7.22643e+09
       0.0606   7.20578e+09
       0.0607   7.18526e+09
       0.0608   7.16488e+09
       0.0609   7.14463e+09
        0.061   7.12452e+09
       0.0611   7.10453e+09
       0.0612   7.08468e+09
       0.0613   7.06496e+09
       0.0614   7.04536e+09
       0.0615   7.02589e+09
       0.0616   7.00655e+09
       0.0617   6.98733e+09
       0.0618   6.96824e+09
       0.0619   6.94926e+09
        0.062   6.93041e+09
       0.0621   6.91168e+09
       0.0622   6.89306e+09
       0.0623   6.87457e+09
       0.0624   6.85619e+09
       0.0625   6.83793e+09
       0.0626   6.81978e+09
       0.0627   6.80174e+09
       0.0628   6.78382e+09
       0.0629   6.76601e+09
        0.063   6.74831e+09
       0.0631   6.73071e+09
       0.0632   6.71323e+09
       0.0633   6.69585e+09
       0.0634   6.67859e+09
       0.0635   6.66142e+09
       0.0636   6.64436e+09
       0.0637   6.62741e+09
       0.0638   6.61056e+09
       0.0639   6.59381e+09
        0.064   6.57716e+09
       0.0641   6.56061e+09
       0.0642   6.54416e+09
       0.0643   6.52781e+09
       0.0644   6.51156e+09
       0.0645    6.4954e+09
       0.0646   6.47934e+09
       0.0647   6.46337e+09
       0.0648    6.4475e+09
       0.0649   6.43172e+09
        0.065   6.41604e+09
       0.0651   6.40045e+09
       0.0652   6.38494e+09
       0.0653   6.36953e+09
       0.0654   6.35421e+09
       0.0655   6.33898e+09
       0.0656   6.32383e+09
       0.0657   6.30877e+09
       0.0658    6.2938e+09
       0.0659   6.27891e+09
        0.066   6.26411e+09
       0.0661    6.2494e+09
       0.0662   6.23476e+09
       0.0663   6.22021e+09
       0.0664   6.20575e+09
       0.0665   6.19136e+09
       0.0666   6.17706e+09
       0.0667   6.16283e+09
       0.0668   6.14869e+09
       0.0669   6.13462e+09
        0.067   6.12063e+09
       0.0671   6.10672e+09
       0.0672   6.09289e+09
       0.0673   6.07913e+09
       0.0674   6.06545e+09
       0.0675   6.05185e+09
       0.0676   6.03832e+09
       0.0677   6.02486e+09
       0.0678   6.01147e+09
       0.0679   5.99816e+09
        0.068   5.98492e+09
       0.0681   5.97176e+09
       0.0682   5.95866e+09
       0.0683   5.94564e+09
       0.0684   5.93268e+09
       0.0685   5.91979e+09
       0.0686   5.90698e+09
       0.0687   5.89423e+09
       0.0688   5.88155e+09
       0.0689   5.86893e+09
        0.069   5.85638e+09
       0.0691    5.8439e+09
       0.0692   5.83149e+09
       0.0693   5.81914e+09
       0.0694   5.80685e+09
       0.0695   5.79463e+09
       0.0696   5.78247e+09
       0.0697   5.77038e+09
       0.0698   5.75834e+09
       0.0699   5.74637e+09
         0.07   5.73447e+09
       0.0701   5.72262e+09
       0.0702   5.71083e+09
       0.0703   5.69911e+09
       0.0704   5.68744e+09
       0.0705   5.67583e+09
       0.0706   5.66428e+09
       0.0707    5.6528e+09
       0.0708   5.64136e+09
       0.0709   5.62999e+09
        0.071   5.61867e+09
       0.0711   5.60741e+09
       0.0712   5.59621e+09
       0.0713   5.58506e+09
       0.0714   5.57397e+09
       0.0715   5.56293e+09
       0.0716   5.55195e+09
       0.0717   5.54102e+09
       0.0718   5.53015e+09
       0.0719   5.51933e+09
        0.072   5.50856e+09
       0.0721   5.49785e+09
       0.0722   5.48718e+09
       0.0723   5.47657e+09
       0.0724   5.46601e+09
       0.0725   5.45551e+09
       0.0726   5.44505e+09
       0.0727   5.43464e+09
       0.0728   5.42428e+09
       0.0729   5.41398e+09
        0.073   5.40372e+09
       0.0731   5.39351e+09
       0.0732   5.38335e+09
       0.0733   5.37324e+09
       0.0734   5.36318e+09
       0.0735   5.35316e+09
       0.0736   5.34319e+09
       0.0737   5.33327e+09
       0.0738   5.32339e+09
       0.0739   5.31357e+09
        0.074   5.30378e+09
       0.0741   5.29405e+09
       0.0742   5.28435e+09
       0.0743   5.27471e+09
       0.0744   5.26511e+09
       0.0745   5.25555e+09
       0.0746   5.24603e+09
       0.0747   5.23656e+09
       0.0748   5.22714e+09
       0.0749   5.21775e+09
        0.075   5.20841e+09
       0.0751   5.19912e+09
       0.0752   5.18986e+09
       0.0753   5.18065e+09
       0.0754   5.17147e+09
       0.0755   5.16234e+09
       0.0756   5.15325e+09
       0.0757   5.14421e+09
       0.0758    5.1352e+09
       0.0759   5.12623e+09
        0.076    5.1173e+09
       0.0761   5.10842e+09
       0.0762   5.09957e+09
       0.0763   5.09076e+09
       0.0764   5.08199e+09
       0.0765   5.07326e+09
       0.0766   5.06456e+09
       0.0767   5.05591e+09
       0.0768   5.04729e+09
       0.0769   5.03871e+09
        0.077   5.03017e+09
       0.0771   5.02167e+09
       0.0772    5.0132e+09
       0.0773   5.00477e+09
       0.0774   4.99637e+09
       0.0775   4.98802e+09
       0.0776   4.97969e+09
       0.0777   4.97141e+09
       0.0778   4.96316e+09
       0.0779   4.95494e+09
        0.078   4.94676e+09
       0.0781   4.93862e+09
       0.0782   4.93051e+09
       0.0783   4.92243e+09
       0.0784   4.91439e+09
       0.0785   4.90638e+09
       0.0786    4.8984e+09
       0.0787   4.89046e+09
       0.0788   4.88256e+09
       0.0789   4.87468e+09
        0.079   4.86684e+09
       0.0791   4.85903e+09
       0.0792   4.85125e+09
       0.0793   4.84351e+09
       0.0794    4.8358e+09
       0.0795   4.82812e+09
       0.0796   4.82047e+09
       0.0797   4.81285e+09
       0.0798   4.80526e+09
       0.0799   4.79771e+09
         0.08   4.79019e+09
       0.0801   4.78269e+09
       0.0802   4.77523e+09
       0.0803    4.7678e+09
       0.0804   4.76039e+09
       0.0805   4.75302e+09
       0.0806   4.74568e+09
       0.0807   4.73837e+09
       0.0808   4.73108e+09
       0.0809   4.72383e+09
        0.081    4.7166e+09
       0.0811   4.70941e+09
       0.0812   4.70224e+09
       0.0813    4.6951e+09
       0.0814   4.68799e+09
       0.0815    4.6809e+09
       0.0816   4.67385e+09
       0.0817   4.66682e+09
       0.0818   4.65982e+09
       0.0819   4.65285e+09
        0.082   4.64591e+09
       0.0821   4.63899e+09
       0.0822    4.6321e+09
       0.0823   4.62523e+09
       0.0824    4.6184e+09
       0.0825   4.61159e+09
       0.0826    4.6048e+09
       0.0827   4.59804e+09
       0.0828   4.59131e+09
       0.0829   4.58461e+09
        0.083   4.57793e+09
       0.0831   4.57127e+09
       0.0832   4.56464e+09
       0.0833   4.55804e+09
       0.0834   4.55146e+09
       0.0835   4.54491e+09
       0.0836   4.53838e+09
       0.0837   4.53187e+09
       0.0838   4.52539e+09
       0.0839   4.51894e+09
        0.084   4.51251e+09
       0.0841    4.5061e+09
       0.0842   4.49972e+09
       0.0843   4.49336e+09
       0.0844   4.48703e+09
       0.0845   4.48071e+09
       0.0846   4.47443e+09
       0.0847   4.46816e+09
       0.0848   4.46192e+09
       0.0849    4.4557e+09
        0.085   4.44951e+09
       0.0851   4.44333e+09
       0.0852   4.43718e+09
       0.0853   4.43106e+09
       0.0854   4.42495e+09
       0.0855   4.41887e+09
       0.0856   4.41281e+09
       0.0857   4.40677e+09
       0.0858   4.40075e+09
       0.0859   4.39476e+09
        0.086   4.38879e+09
       0.0861   4.38283e+09
       0.0862    4.3769e+09
       0.0863     4.371e+09
       0.0864   4.36511e+09
       0.0865   4.35924e+09
       0.0866    4.3534e+09
       0.0867   4.34757e+09
       0.0868   4.34177e+09
       0.0869   4.33598e+09
        0.087   4.33022e+09
       0.0871   4.32448e+09
       0.0872   4.31876e+09
       0.0873   4.31306e+09
       0.0874   4.30737e+09
       0.0875   4.30171e+09
       0.0876   4.29607e+09
       0.0877   4.29045e+09
       0.0878   4.28485e+09
       0.0879   4.27926e+09
        0.088    4.2737e+09
       0.0881   4.26816e+09
       0.0882   4.26263e+09
       0.0883   4.25713e+09
       0.0884   4.25164e+09
       0.0885   4.24617e+09
       0.0886   4.24072e+09
       0.0887   4.23529e+09
       0.0888   4.22988e+09
       0.0889   4.22449e+09
        0.089   4.21911e+09
       0.0891   4.21376e+09
       0.0892   4.20842e+09
       0.0893    4.2031e+09
       0.0894    4.1978e+09
       0.0895   4.19251e+09
       0.0896   4.18725e+09
       0.0897     4.182e+09
       0.0898   4.17677e+09
       0.0899   4.17155e+09
         0.09   4.16636e+09
       0.0901   4.16118e+09
       0.0902   4.15602e+09
       0.0903   4.15087e+09
       0.0904   4.14575e+09
       0.0905   4.14064e+09
       0.0906   4.13555e+09
       0.0907   4.13047e+09
       0.0908   4.12541e+09
       0.0909   4.12037e+09
        0.091   4.11534e+09
       0.0911   4.11033e+09
       0.0912   4.10534e+09
       0.0913   4.10037e+09
       0.0914   4.09541e+09
       0.0915   4.09046e+09
       0.0916   4.08553e+09
       0.0917   4.08062e+09
       0.0918   4.07573e+09
       0.0919   4.07085e+09
        0.092   4.06598e+09
       0.0921   4.06113e+09
       0.0922    4.0563e+09
       0.0923   4.05148e+09
       0.0924   4.04668e+09
       0.0925    4.0419e+09
       0.0926   4.03713e+09
       0.0927   4.03237e+09
       0.0928   4.02763e+09
       0.0929    4.0229e+09
        0.093   4.01819e+09
       0.0931    4.0135e+09
       0.0932   4.00882e+09
       0.0933   4.00415e+09
       0.0934    3.9995e+09
       0.0935   3.99486e+09
       0.0936   3.99024e+09
       0.0937   3.98563e+09
       0.0938   3.98104e+09
       0.0939   3.97646e+09
        0.094    3.9719e+09
       0.0941   3.96735e+09
       0.0942   3.96281e+09
       0.0943   3.95829e+09
       0.0944   3.95378e+09
       0.0945   3.94929e+09
       0.0946   3.94481e+09
       0.0947   3.94034e+09
       0.0948   3.93589e+09
       0.0949   3.93145e+09
        0.095   3.92703e+09
       0.0951   3.92262e+09
       0.0952   3.91822e+09
       0.0953   3.91384e+09
       0.0954   3.90946e+09
       0.0955   3.90511e+09
       0.0956   3.90076e+09
       0.0957   3.89643e+09
       0.0958   3.89211e+09
       0.0959   3.88781e+09
        0.096   3.88352e+09
       0.0961   3.87924e+09
       0.0962   3.87497e+09
       0.0963   3.87072e+09
       0.0964   3.86648e+09
       0.0965   3.86225e+09
       0.0966   3.85803e+09
       0.0967   3.85383e+09
       0.0968   3.84964e+09
       0.0969   3.84546e+09
        0.097    3.8413e+09
       0.0971   3.83714e+09
       0.0972     3.833e+09
       0.0973   3.82888e+09
       0.0974   3.82476e+09
       0.0975   3.82066e+09
       0.0976   3.81656e+09
       0.0977   3.81248e+09
       0.0978   3.80841e+09
       0.0979   3.80436e+09
        0.098   3.80031e+09
       0.0981   3.79628e+09
       0.0982   3.79226e+09
       0.0983   3.78825e+09
       0.0984   3.78425e+09
       0.0985   3.78027e+09
       0.0986   3.77629e+09
       0.0987   3.77233e+09
       0.0988   3.76838e+09
       0.0989   3.76444e+09
        0.099   3.76051e+09
       0.0991   3.75659e+09
       0.0992   3.75269e+09
       0.0993   3.74879e+09
       0.0994   3.74491e+09
       0.0995   3.74104e+09
       0.0996   3.73717e+09
       0.0997   3.73332e+09
       0.0998   3.72948e+09
       0.0999   3.72565e+09
          0.1   3.72184e+09
