# Probe 0 (0.05 0.05 0.005)
#       Probe             0
#        Time
       0.0501   4.50619e-05
       0.0502   4.47645e-05
       0.0503   4.44712e-05
       0.0504   4.41818e-05
       0.0505   4.38963e-05
       0.0506   4.36146e-05
       0.0507   4.33368e-05
       0.0508   4.30626e-05
       0.0509    4.2792e-05
        0.051    4.2525e-05
       0.0511   4.22615e-05
       0.0512   4.20014e-05
       0.0513   4.17448e-05
       0.0514   4.14914e-05
       0.0515   4.12413e-05
       0.0516   4.09945e-05
       0.0517   4.07508e-05
       0.0518   4.05101e-05
       0.0519   4.02726e-05
        0.052    4.0038e-05
       0.0521   3.98064e-05
       0.0522   3.95777e-05
       0.0523   3.93518e-05
       0.0524   3.91287e-05
       0.0525   3.89084e-05
       0.0526   3.86908e-05
       0.0527   3.84759e-05
       0.0528   3.82635e-05
       0.0529   3.80538e-05
        0.053   3.78466e-05
       0.0531   3.76419e-05
       0.0532   3.74396e-05
       0.0533   3.72398e-05
       0.0534   3.70423e-05
       0.0535   3.68471e-05
       0.0536   3.66543e-05
       0.0537   3.64637e-05
       0.0538   3.62754e-05
       0.0539   3.60892e-05
        0.054   3.59052e-05
       0.0541   3.57233e-05
       0.0542   3.55435e-05
       0.0543   3.53658e-05
       0.0544   3.51901e-05
       0.0545   3.50164e-05
       0.0546   3.48446e-05
       0.0547   3.46748e-05
       0.0548   3.45069e-05
       0.0549   3.43408e-05
        0.055   3.41766e-05
       0.0551   3.40142e-05
       0.0552   3.38536e-05
       0.0553   3.36948e-05
       0.0554   3.35377e-05
       0.0555   3.33823e-05
       0.0556   3.32286e-05
       0.0557   3.30766e-05
       0.0558   3.29261e-05
       0.0559   3.27773e-05
        0.056   3.26301e-05
       0.0561   3.24845e-05
       0.0562   3.23403e-05
       0.0563   3.21977e-05
       0.0564   3.20566e-05
       0.0565    3.1917e-05
       0.0566   3.17788e-05
       0.0567   3.16421e-05
       0.0568   3.15068e-05
       0.0569   3.13728e-05
        0.057   3.12402e-05
       0.0571    3.1109e-05
       0.0572   3.09791e-05
       0.0573   3.08506e-05
       0.0574   3.07233e-05
       0.0575   3.05973e-05
       0.0576   3.04725e-05
       0.0577    3.0349e-05
       0.0578   3.02268e-05
       0.0579   3.01057e-05
        0.058   2.99858e-05
       0.0581   2.98671e-05
       0.0582   2.97496e-05
       0.0583   2.96332e-05
       0.0584   2.95179e-05
       0.0585   2.94037e-05
       0.0586   2.92907e-05
       0.0587   2.91787e-05
       0.0588   2.90678e-05
       0.0589   2.89579e-05
        0.059   2.88491e-05
       0.0591   2.87413e-05
       0.0592   2.86345e-05
       0.0593   2.85287e-05
       0.0594   2.84239e-05
       0.0595   2.83201e-05
       0.0596   2.82173e-05
       0.0597   2.81153e-05
       0.0598   2.80144e-05
       0.0599   2.79143e-05
         0.06   2.78152e-05
       0.0601   2.77169e-05
       0.0602   2.76195e-05
       0.0603   2.75231e-05
       0.0604   2.74274e-05
       0.0605   2.73327e-05
       0.0606   2.72388e-05
       0.0607   2.71457e-05
       0.0608   2.70534e-05
       0.0609    2.6962e-05
        0.061   2.68713e-05
       0.0611   2.67815e-05
       0.0612   2.66924e-05
       0.0613   2.66041e-05
       0.0614   2.65166e-05
       0.0615   2.64298e-05
       0.0616   2.63437e-05
       0.0617   2.62584e-05
       0.0618   2.61739e-05
       0.0619     2.609e-05
        0.062   2.60068e-05
       0.0621   2.59244e-05
       0.0622   2.58426e-05
       0.0623   2.57616e-05
       0.0624   2.56812e-05
       0.0625   2.56015e-05
       0.0626   2.55224e-05
       0.0627    2.5444e-05
       0.0628   2.53662e-05
       0.0629   2.52891e-05
        0.063   2.52126e-05
       0.0631   2.51367e-05
       0.0632   2.50614e-05
       0.0633   2.49868e-05
       0.0634   2.49127e-05
       0.0635   2.48392e-05
       0.0636   2.47664e-05
       0.0637   2.46941e-05
       0.0638   2.46223e-05
       0.0639   2.45512e-05
        0.064   2.44806e-05
       0.0641   2.44106e-05
       0.0642   2.43411e-05
       0.0643   2.42721e-05
       0.0644   2.42037e-05
       0.0645   2.41358e-05
       0.0646   2.40685e-05
       0.0647   2.40016e-05
       0.0648   2.39353e-05
       0.0649   2.38695e-05
        0.065   2.38041e-05
       0.0651   2.37393e-05
       0.0652    2.3675e-05
       0.0653   2.36111e-05
       0.0654   2.35478e-05
       0.0655   2.34849e-05
       0.0656   2.34224e-05
       0.0657   2.33605e-05
       0.0658    2.3299e-05
       0.0659   2.32379e-05
        0.066   2.31773e-05
       0.0661   2.31172e-05
       0.0662   2.30575e-05
       0.0663   2.29982e-05
       0.0664   2.29393e-05
       0.0665   2.28809e-05
       0.0666   2.28229e-05
       0.0667   2.27653e-05
       0.0668   2.27082e-05
       0.0669   2.26514e-05
        0.067    2.2595e-05
       0.0671   2.25391e-05
       0.0672   2.24835e-05
       0.0673   2.24284e-05
       0.0674   2.23736e-05
       0.0675   2.23192e-05
       0.0676   2.22652e-05
       0.0677   2.22115e-05
       0.0678   2.21583e-05
       0.0679   2.21054e-05
        0.068   2.20528e-05
       0.0681   2.20007e-05
       0.0682   2.19488e-05
       0.0683   2.18974e-05
       0.0684   2.18463e-05
       0.0685   2.17955e-05
       0.0686   2.17451e-05
       0.0687    2.1695e-05
       0.0688   2.16453e-05
       0.0689   2.15959e-05
        0.069   2.15468e-05
       0.0691   2.14981e-05
       0.0692   2.14496e-05
       0.0693   2.14015e-05
       0.0694   2.13537e-05
       0.0695   2.13063e-05
       0.0696   2.12591e-05
       0.0697   2.12123e-05
       0.0698   2.11657e-05
       0.0699   2.11195e-05
         0.07   2.10735e-05
       0.0701   2.10279e-05
       0.0702   2.09825e-05
       0.0703   2.09375e-05
       0.0704   2.08927e-05
       0.0705   2.08482e-05
       0.0706    2.0804e-05
       0.0707   2.07601e-05
       0.0708   2.07165e-05
       0.0709   2.06731e-05
        0.071     2.063e-05
       0.0711   2.05872e-05
       0.0712   2.05446e-05
       0.0713   2.05023e-05
       0.0714   2.04603e-05
       0.0715   2.04185e-05
       0.0716    2.0377e-05
       0.0717   2.03358e-05
       0.0718   2.02948e-05
       0.0719    2.0254e-05
        0.072   2.02135e-05
       0.0721   2.01733e-05
       0.0722   2.01333e-05
       0.0723   2.00935e-05
       0.0724    2.0054e-05
       0.0725   2.00147e-05
       0.0726   1.99757e-05
       0.0727   1.99368e-05
       0.0728   1.98983e-05
       0.0729   1.98599e-05
        0.073   1.98218e-05
       0.0731   1.97839e-05
       0.0732   1.97462e-05
       0.0733   1.97087e-05
       0.0734   1.96715e-05
       0.0735   1.96345e-05
       0.0736   1.95977e-05
       0.0737   1.95611e-05
       0.0738   1.95247e-05
       0.0739   1.94886e-05
        0.074   1.94526e-05
       0.0741   1.94169e-05
       0.0742   1.93813e-05
       0.0743    1.9346e-05
       0.0744   1.93108e-05
       0.0745   1.92759e-05
       0.0746   1.92412e-05
       0.0747   1.92066e-05
       0.0748   1.91723e-05
       0.0749   1.91381e-05
        0.075   1.91041e-05
       0.0751   1.90704e-05
       0.0752   1.90368e-05
       0.0753   1.90034e-05
       0.0754   1.89702e-05
       0.0755   1.89372e-05
       0.0756   1.89043e-05
       0.0757   1.88716e-05
       0.0758   1.88392e-05
       0.0759   1.88069e-05
        0.076   1.87747e-05
       0.0761   1.87428e-05
       0.0762    1.8711e-05
       0.0763   1.86794e-05
       0.0764   1.86479e-05
       0.0765   1.86167e-05
       0.0766   1.85856e-05
       0.0767   1.85546e-05
       0.0768   1.85239e-05
       0.0769   1.84933e-05
        0.077   1.84628e-05
       0.0771   1.84325e-05
       0.0772   1.84024e-05
       0.0773   1.83725e-05
       0.0774   1.83427e-05
       0.0775    1.8313e-05
       0.0776   1.82835e-05
       0.0777   1.82542e-05
       0.0778    1.8225e-05
       0.0779    1.8196e-05
        0.078   1.81671e-05
       0.0781   1.81384e-05
       0.0782   1.81098e-05
       0.0783   1.80813e-05
       0.0784    1.8053e-05
       0.0785   1.80249e-05
       0.0786   1.79969e-05
       0.0787    1.7969e-05
       0.0788   1.79413e-05
       0.0789   1.79137e-05
        0.079   1.78863e-05
       0.0791    1.7859e-05
       0.0792   1.78318e-05
       0.0793   1.78048e-05
       0.0794   1.77779e-05
       0.0795   1.77512e-05
       0.0796   1.77245e-05
       0.0797    1.7698e-05
       0.0798   1.76717e-05
       0.0799   1.76455e-05
         0.08   1.76194e-05
       0.0801   1.75934e-05
       0.0802   1.75675e-05
       0.0803   1.75418e-05
       0.0804   1.75162e-05
       0.0805   1.74908e-05
       0.0806   1.74654e-05
       0.0807   1.74402e-05
       0.0808   1.74151e-05
       0.0809   1.73901e-05
        0.081   1.73653e-05
       0.0811   1.73405e-05
       0.0812   1.73159e-05
       0.0813   1.72914e-05
       0.0814    1.7267e-05
       0.0815   1.72427e-05
       0.0816   1.72186e-05
       0.0817   1.71945e-05
       0.0818   1.71706e-05
       0.0819   1.71468e-05
        0.082   1.71231e-05
       0.0821   1.70995e-05
       0.0822    1.7076e-05
       0.0823   1.70526e-05
       0.0824   1.70294e-05
       0.0825   1.70062e-05
       0.0826   1.69832e-05
       0.0827   1.69602e-05
       0.0828   1.69374e-05
       0.0829   1.69146e-05
        0.083    1.6892e-05
       0.0831   1.68695e-05
       0.0832   1.68471e-05
       0.0833   1.68248e-05
       0.0834   1.68025e-05
       0.0835   1.67804e-05
       0.0836   1.67584e-05
       0.0837   1.67365e-05
       0.0838   1.67147e-05
       0.0839   1.66929e-05
        0.084   1.66713e-05
       0.0841   1.66498e-05
       0.0842   1.66284e-05
       0.0843    1.6607e-05
       0.0844   1.65858e-05
       0.0845   1.65646e-05
       0.0846   1.65436e-05
       0.0847   1.65226e-05
       0.0848   1.65017e-05
       0.0849    1.6481e-05
        0.085   1.64603e-05
       0.0851   1.64397e-05
       0.0852   1.64192e-05
       0.0853   1.63988e-05
       0.0854   1.63784e-05
       0.0855   1.63582e-05
       0.0856    1.6338e-05
       0.0857    1.6318e-05
       0.0858    1.6298e-05
       0.0859   1.62781e-05
        0.086   1.62583e-05
       0.0861   1.62386e-05
       0.0862   1.62189e-05
       0.0863   1.61994e-05
       0.0864   1.61799e-05
       0.0865   1.61605e-05
       0.0866   1.61412e-05
       0.0867    1.6122e-05
       0.0868   1.61028e-05
       0.0869   1.60838e-05
        0.087   1.60648e-05
       0.0871   1.60459e-05
       0.0872    1.6027e-05
       0.0873   1.60083e-05
       0.0874   1.59896e-05
       0.0875    1.5971e-05
       0.0876   1.59525e-05
       0.0877   1.59341e-05
       0.0878   1.59157e-05
       0.0879   1.58974e-05
        0.088   1.58792e-05
       0.0881    1.5861e-05
       0.0882    1.5843e-05
       0.0883    1.5825e-05
       0.0884   1.58071e-05
       0.0885   1.57892e-05
       0.0886   1.57714e-05
       0.0887   1.57537e-05
       0.0888   1.57361e-05
       0.0889   1.57185e-05
        0.089   1.57011e-05
       0.0891   1.56836e-05
       0.0892   1.56663e-05
       0.0893    1.5649e-05
       0.0894   1.56318e-05
       0.0895   1.56146e-05
       0.0896   1.55976e-05
       0.0897   1.55806e-05
       0.0898   1.55636e-05
       0.0899   1.55467e-05
         0.09   1.55299e-05
       0.0901   1.55132e-05
       0.0902   1.54965e-05
       0.0903   1.54799e-05
       0.0904   1.54633e-05
       0.0905   1.54469e-05
       0.0906   1.54304e-05
       0.0907   1.54141e-05
       0.0908   1.53978e-05
       0.0909   1.53816e-05
        0.091   1.53654e-05
       0.0911   1.53493e-05
       0.0912   1.53332e-05
       0.0913   1.53173e-05
       0.0914   1.53013e-05
       0.0915   1.52855e-05
       0.0916   1.52697e-05
       0.0917   1.52539e-05
       0.0918   1.52383e-05
       0.0919   1.52226e-05
        0.092   1.52071e-05
       0.0921   1.51916e-05
       0.0922   1.51761e-05
       0.0923   1.51607e-05
       0.0924   1.51454e-05
       0.0925   1.51301e-05
       0.0926   1.51149e-05
       0.0927   1.50998e-05
       0.0928   1.50847e-05
       0.0929   1.50696e-05
        0.093   1.50546e-05
       0.0931   1.50397e-05
       0.0932   1.50248e-05
       0.0933     1.501e-05
       0.0934   1.49952e-05
       0.0935   1.49805e-05
       0.0936   1.49658e-05
       0.0937   1.49512e-05
       0.0938   1.49367e-05
       0.0939   1.49222e-05
        0.094   1.49077e-05
       0.0941   1.48933e-05
       0.0942    1.4879e-05
       0.0943   1.48647e-05
       0.0944   1.48504e-05
       0.0945   1.48362e-05
       0.0946   1.48221e-05
       0.0947    1.4808e-05
       0.0948    1.4794e-05
       0.0949     1.478e-05
        0.095    1.4766e-05
       0.0951   1.47521e-05
       0.0952   1.47383e-05
       0.0953   1.47245e-05
       0.0954   1.47107e-05
       0.0955   1.46971e-05
       0.0956   1.46834e-05
       0.0957   1.46698e-05
       0.0958   1.46562e-05
       0.0959   1.46427e-05
        0.096   1.46293e-05
       0.0961   1.46159e-05
       0.0962   1.46025e-05
       0.0963   1.45892e-05
       0.0964   1.45759e-05
       0.0965   1.45627e-05
       0.0966   1.45495e-05
       0.0967   1.45364e-05
       0.0968   1.45233e-05
       0.0969   1.45102e-05
        0.097   1.44972e-05
       0.0971   1.44843e-05
       0.0972   1.44714e-05
       0.0973   1.44585e-05
       0.0974   1.44457e-05
       0.0975   1.44329e-05
       0.0976   1.44202e-05
       0.0977   1.44075e-05
       0.0978   1.43948e-05
       0.0979   1.43822e-05
        0.098   1.43696e-05
       0.0981   1.43571e-05
       0.0982   1.43446e-05
       0.0983   1.43322e-05
       0.0984   1.43198e-05
       0.0985   1.43074e-05
       0.0986   1.42951e-05
       0.0987   1.42829e-05
       0.0988   1.42706e-05
       0.0989   1.42584e-05
        0.099   1.42463e-05
       0.0991   1.42342e-05
       0.0992   1.42221e-05
       0.0993     1.421e-05
       0.0994   1.41981e-05
       0.0995   1.41861e-05
       0.0996   1.41742e-05
       0.0997   1.41623e-05
       0.0998   1.41505e-05
       0.0999   1.41387e-05
          0.1   1.41269e-05
