# Probe 0 (0.05 0.05 0.005)
#       Probe             0
#        Time
       0.0501       11.4882
       0.0502       11.4057
       0.0503       11.3243
       0.0504        11.244
       0.0505       11.1647
       0.0506       11.0866
       0.0507       11.0095
       0.0508       10.9334
       0.0509       10.8583
        0.051       10.7842
       0.0511       10.7111
       0.0512       10.6389
       0.0513       10.5677
       0.0514       10.4974
       0.0515        10.428
       0.0516       10.3595
       0.0517       10.2919
       0.0518       10.2252
       0.0519       10.1592
        0.052       10.0942
       0.0521       10.0299
       0.0522       9.96644
       0.0523       9.90377
       0.0524       9.84188
       0.0525       9.78076
       0.0526       9.72038
       0.0527       9.66075
       0.0528       9.60185
       0.0529       9.54366
        0.053       9.48617
       0.0531       9.42938
       0.0532       9.37327
       0.0533       9.31782
       0.0534       9.26304
       0.0535       9.20891
       0.0536       9.15541
       0.0537       9.10254
       0.0538        9.0503
       0.0539       8.99865
        0.054       8.94761
       0.0541       8.89716
       0.0542       8.84729
       0.0543       8.79798
       0.0544       8.74924
       0.0545       8.70106
       0.0546       8.65342
       0.0547       8.60631
       0.0548       8.55973
       0.0549       8.51367
        0.055       8.46813
       0.0551       8.42309
       0.0552       8.37854
       0.0553       8.33449
       0.0554       8.29091
       0.0555       8.24781
       0.0556       8.20518
       0.0557       8.16301
       0.0558       8.12129
       0.0559       8.08002
        0.056       8.03919
       0.0561       7.99879
       0.0562       7.95882
       0.0563       7.91927
       0.0564       7.88014
       0.0565       7.84142
       0.0566        7.8031
       0.0567       7.76517
       0.0568       7.72764
       0.0569       7.69049
        0.057       7.65373
       0.0571       7.61734
       0.0572       7.58132
       0.0573       7.54566
       0.0574       7.51036
       0.0575       7.47542
       0.0576       7.44083
       0.0577       7.40658
       0.0578       7.37267
       0.0579        7.3391
        0.058       7.30586
       0.0581       7.27294
       0.0582       7.24035
       0.0583       7.20807
       0.0584       7.17611
       0.0585       7.14445
       0.0586        7.1131
       0.0587       7.08205
       0.0588       7.05129
       0.0589       7.02083
        0.059       6.99066
       0.0591       6.96077
       0.0592       6.93116
       0.0593       6.90183
       0.0594       6.87277
       0.0595       6.84398
       0.0596       6.81546
       0.0597        6.7872
       0.0598        6.7592
       0.0599       6.73146
         0.06       6.70397
       0.0601       6.67673
       0.0602       6.64973
       0.0603       6.62298
       0.0604       6.59647
       0.0605        6.5702
       0.0606       6.54416
       0.0607       6.51835
       0.0608       6.49277
       0.0609       6.46742
        0.061       6.44229
       0.0611       6.41737
       0.0612       6.39268
       0.0613        6.3682
       0.0614       6.34393
       0.0615       6.31987
       0.0616       6.29602
       0.0617       6.27237
       0.0618       6.24892
       0.0619       6.22567
        0.062       6.20262
       0.0621       6.17977
       0.0622        6.1571
       0.0623       6.13463
       0.0624       6.11234
       0.0625       6.09024
       0.0626       6.06832
       0.0627       6.04658
       0.0628       6.02502
       0.0629       6.00364
        0.063       5.98243
       0.0631        5.9614
       0.0632       5.94053
       0.0633       5.91984
       0.0634       5.89931
       0.0635       5.87894
       0.0636       5.85874
       0.0637        5.8387
       0.0638       5.81882
       0.0639        5.7991
        0.064       5.77953
       0.0641       5.76011
       0.0642       5.74085
       0.0643       5.72174
       0.0644       5.70277
       0.0645       5.68396
       0.0646       5.66528
       0.0647       5.64676
       0.0648       5.62837
       0.0649       5.61013
        0.065       5.59202
       0.0651       5.57405
       0.0652       5.55622
       0.0653       5.53852
       0.0654       5.52096
       0.0655       5.50352
       0.0656       5.48622
       0.0657       5.46905
       0.0658         5.452
       0.0659       5.43508
        0.066       5.41828
       0.0661       5.40161
       0.0662       5.38506
       0.0663       5.36863
       0.0664       5.35232
       0.0665       5.33612
       0.0666       5.32005
       0.0667       5.30409
       0.0668       5.28824
       0.0669       5.27251
        0.067       5.25689
       0.0671       5.24139
       0.0672       5.22599
       0.0673        5.2107
       0.0674       5.19551
       0.0675       5.18044
       0.0676       5.16547
       0.0677        5.1506
       0.0678       5.13584
       0.0679       5.12118
        0.068       5.10662
       0.0681       5.09216
       0.0682        5.0778
       0.0683       5.06354
       0.0684       5.04938
       0.0685       5.03531
       0.0686       5.02134
       0.0687       5.00746
       0.0688       4.99368
       0.0689       4.97998
        0.069       4.96638
       0.0691       4.95287
       0.0692       4.93945
       0.0693       4.92612
       0.0694       4.91288
       0.0695       4.89973
       0.0696       4.88666
       0.0697       4.87367
       0.0698       4.86077
       0.0699       4.84796
         0.07       4.83523
       0.0701       4.82258
       0.0702       4.81001
       0.0703       4.79752
       0.0704       4.78512
       0.0705       4.77279
       0.0706       4.76054
       0.0707       4.74837
       0.0708       4.73628
       0.0709       4.72426
        0.071       4.71232
       0.0711       4.70045
       0.0712       4.68866
       0.0713       4.67694
       0.0714       4.66529
       0.0715       4.65372
       0.0716       4.64222
       0.0717       4.63079
       0.0718       4.61943
       0.0719       4.60814
        0.072       4.59691
       0.0721       4.58576
       0.0722       4.57467
       0.0723       4.56366
       0.0724        4.5527
       0.0725       4.54182
       0.0726         4.531
       0.0727       4.52024
       0.0728       4.50955
       0.0729       4.49892
        0.073       4.48836
       0.0731       4.47786
       0.0732       4.46742
       0.0733       4.45704
       0.0734       4.44672
       0.0735       4.43646
       0.0736       4.42626
       0.0737       4.41613
       0.0738       4.40605
       0.0739       4.39603
        0.074       4.38606
       0.0741       4.37616
       0.0742       4.36631
       0.0743       4.35652
       0.0744       4.34678
       0.0745        4.3371
       0.0746       4.32748
       0.0747       4.31791
       0.0748       4.30839
       0.0749       4.29893
        0.075       4.28951
       0.0751       4.28016
       0.0752       4.27085
       0.0753        4.2616
       0.0754        4.2524
       0.0755       4.24325
       0.0756       4.23415
       0.0757        4.2251
       0.0758       4.21609
       0.0759       4.20714
        0.076       4.19824
       0.0761       4.18939
       0.0762       4.18058
       0.0763       4.17182
       0.0764       4.16311
       0.0765       4.15445
       0.0766       4.14583
       0.0767       4.13726
       0.0768       4.12874
       0.0769       4.12026
        0.077       4.11183
       0.0771       4.10344
       0.0772       4.09509
       0.0773       4.08679
       0.0774       4.07853
       0.0775       4.07032
       0.0776       4.06215
       0.0777       4.05402
       0.0778       4.04594
       0.0779       4.03789
        0.078       4.02989
       0.0781       4.02193
       0.0782       4.01401
       0.0783       4.00613
       0.0784        3.9983
       0.0785        3.9905
       0.0786       3.98274
       0.0787       3.97502
       0.0788       3.96734
       0.0789        3.9597
        0.079        3.9521
       0.0791       3.94454
       0.0792       3.93701
       0.0793       3.92952
       0.0794       3.92207
       0.0795       3.91466
       0.0796       3.90729
       0.0797       3.89995
       0.0798       3.89264
       0.0799       3.88538
         0.08       3.87815
       0.0801       3.87095
       0.0802       3.86379
       0.0803       3.85667
       0.0804       3.84958
       0.0805       3.84252
       0.0806        3.8355
       0.0807       3.82851
       0.0808       3.82156
       0.0809       3.81464
        0.081       3.80775
       0.0811        3.8009
       0.0812       3.79408
       0.0813       3.78729
       0.0814       3.78053
       0.0815       3.77381
       0.0816       3.76712
       0.0817       3.76046
       0.0818       3.75383
       0.0819       3.74723
        0.082       3.74066
       0.0821       3.73413
       0.0822       3.72762
       0.0823       3.72115
       0.0824        3.7147
       0.0825       3.70829
       0.0826        3.7019
       0.0827       3.69555
       0.0828       3.68922
       0.0829       3.68292
        0.083       3.67666
       0.0831       3.67042
       0.0832        3.6642
       0.0833       3.65802
       0.0834       3.65187
       0.0835       3.64574
       0.0836       3.63964
       0.0837       3.63357
       0.0838       3.62752
       0.0839       3.62151
        0.084       3.61552
       0.0841       3.60955
       0.0842       3.60362
       0.0843       3.59771
       0.0844       3.59182
       0.0845       3.58596
       0.0846       3.58013
       0.0847       3.57433
       0.0848       3.56854
       0.0849       3.56279
        0.085       3.55706
       0.0851       3.55135
       0.0852       3.54567
       0.0853       3.54002
       0.0854       3.53439
       0.0855       3.52878
       0.0856        3.5232
       0.0857       3.51764
       0.0858        3.5121
       0.0859       3.50659
        0.086       3.50111
       0.0861       3.49564
       0.0862        3.4902
       0.0863       3.48479
       0.0864       3.47939
       0.0865       3.47402
       0.0866       3.46867
       0.0867       3.46334
       0.0868       3.45804
       0.0869       3.45276
        0.087        3.4475
       0.0871       3.44226
       0.0872       3.43705
       0.0873       3.43185
       0.0874       3.42668
       0.0875       3.42153
       0.0876        3.4164
       0.0877       3.41129
       0.0878       3.40621
       0.0879       3.40114
        0.088       3.39609
       0.0881       3.39107
       0.0882       3.38607
       0.0883       3.38108
       0.0884       3.37612
       0.0885       3.37117
       0.0886       3.36625
       0.0887       3.36135
       0.0888       3.35646
       0.0889        3.3516
        0.089       3.34675
       0.0891       3.34193
       0.0892       3.33712
       0.0893       3.33234
       0.0894       3.32757
       0.0895       3.32282
       0.0896       3.31809
       0.0897       3.31338
       0.0898       3.30869
       0.0899       3.30401
         0.09       3.29936
       0.0901       3.29472
       0.0902        3.2901
       0.0903        3.2855
       0.0904       3.28091
       0.0905       3.27635
       0.0906        3.2718
       0.0907       3.26727
       0.0908       3.26276
       0.0909       3.25826
        0.091       3.25378
       0.0911       3.24932
       0.0912       3.24488
       0.0913       3.24045
       0.0914       3.23604
       0.0915       3.23165
       0.0916       3.22727
       0.0917       3.22291
       0.0918       3.21857
       0.0919       3.21424
        0.092       3.20993
       0.0921       3.20564
       0.0922       3.20136
       0.0923        3.1971
       0.0924       3.19285
       0.0925       3.18862
       0.0926       3.18441
       0.0927       3.18021
       0.0928       3.17603
       0.0929       3.17186
        0.093       3.16771
       0.0931       3.16357
       0.0932       3.15945
       0.0933       3.15534
       0.0934       3.15125
       0.0935       3.14718
       0.0936       3.14312
       0.0937       3.13907
       0.0938       3.13504
       0.0939       3.13102
        0.094       3.12702
       0.0941       3.12303
       0.0942       3.11906
       0.0943        3.1151
       0.0944       3.11115
       0.0945       3.10722
       0.0946        3.1033
       0.0947        3.0994
       0.0948       3.09551
       0.0949       3.09164
        0.095       3.08778
       0.0951       3.08393
       0.0952       3.08009
       0.0953       3.07627
       0.0954       3.07247
       0.0955       3.06867
       0.0956       3.06489
       0.0957       3.06113
       0.0958       3.05737
       0.0959       3.05363
        0.096       3.04991
       0.0961       3.04619
       0.0962       3.04249
       0.0963        3.0388
       0.0964       3.03513
       0.0965       3.03146
       0.0966       3.02781
       0.0967       3.02417
       0.0968       3.02055
       0.0969       3.01694
        0.097       3.01334
       0.0971       3.00975
       0.0972       3.00617
       0.0973       3.00261
       0.0974       2.99906
       0.0975       2.99552
       0.0976       2.99199
       0.0977       2.98847
       0.0978       2.98497
       0.0979       2.98148
        0.098         2.978
       0.0981       2.97453
       0.0982       2.97107
       0.0983       2.96763
       0.0984       2.96419
       0.0985       2.96077
       0.0986       2.95736
       0.0987       2.95396
       0.0988       2.95057
       0.0989       2.94719
        0.099       2.94383
       0.0991       2.94047
       0.0992       2.93713
       0.0993        2.9338
       0.0994       2.93048
       0.0995       2.92716
       0.0996       2.92386
       0.0997       2.92057
       0.0998        2.9173
       0.0999       2.91403
          0.1       2.91077
