# Probe 0 (0.05 0.05 0.005)
#       Probe             0
#        Time
       0.0501   0.000436769
       0.0502   0.000433631
       0.0503   0.000430536
       0.0504   0.000427483
       0.0505   0.000424471
       0.0506     0.0004215
       0.0507   0.000418568
       0.0508   0.000415675
       0.0509   0.000412821
        0.051   0.000410004
       0.0511   0.000407224
       0.0512   0.000404481
       0.0513   0.000401773
       0.0514   0.000399101
       0.0515   0.000396463
       0.0516   0.000393858
       0.0517   0.000391287
       0.0518   0.000388749
       0.0519   0.000386243
        0.052   0.000383769
       0.0521   0.000381326
       0.0522   0.000378913
       0.0523   0.000376531
       0.0524   0.000374178
       0.0525   0.000371854
       0.0526   0.000369558
       0.0527   0.000367291
       0.0528   0.000365052
       0.0529   0.000362839
        0.053   0.000360654
       0.0531   0.000358495
       0.0532   0.000356361
       0.0533   0.000354254
       0.0534   0.000352171
       0.0535   0.000350113
       0.0536   0.000348079
       0.0537   0.000346069
       0.0538   0.000344082
       0.0539   0.000342119
        0.054   0.000340179
       0.0541    0.00033826
       0.0542   0.000336364
       0.0543    0.00033449
       0.0544   0.000332637
       0.0545   0.000330805
       0.0546   0.000328993
       0.0547   0.000327203
       0.0548   0.000325432
       0.0549   0.000323681
        0.055   0.000321949
       0.0551   0.000320237
       0.0552   0.000318543
       0.0553   0.000316868
       0.0554   0.000315212
       0.0555   0.000313573
       0.0556   0.000311952
       0.0557   0.000310349
       0.0558   0.000308763
       0.0559   0.000307194
        0.056   0.000305641
       0.0561   0.000304105
       0.0562   0.000302586
       0.0563   0.000301082
       0.0564   0.000299594
       0.0565   0.000298122
       0.0566   0.000296665
       0.0567   0.000295223
       0.0568   0.000293796
       0.0569   0.000292384
        0.057   0.000290986
       0.0571   0.000289603
       0.0572   0.000288233
       0.0573   0.000286878
       0.0574   0.000285536
       0.0575   0.000284207
       0.0576   0.000282892
       0.0577    0.00028159
       0.0578   0.000280301
       0.0579   0.000279025
        0.058   0.000277761
       0.0581   0.000276509
       0.0582    0.00027527
       0.0583   0.000274043
       0.0584   0.000272828
       0.0585   0.000271624
       0.0586   0.000270432
       0.0587   0.000269252
       0.0588   0.000268083
       0.0589   0.000266924
        0.059   0.000265777
       0.0591   0.000264641
       0.0592   0.000263515
       0.0593     0.0002624
       0.0594   0.000261295
       0.0595   0.000260201
       0.0596   0.000259116
       0.0597   0.000258042
       0.0598   0.000256978
       0.0599   0.000255923
         0.06   0.000254878
       0.0601   0.000253842
       0.0602   0.000252816
       0.0603   0.000251799
       0.0604   0.000250791
       0.0605   0.000249792
       0.0606   0.000248802
       0.0607   0.000247821
       0.0608   0.000246848
       0.0609   0.000245884
        0.061   0.000244929
       0.0611   0.000243982
       0.0612   0.000243043
       0.0613   0.000242112
       0.0614   0.000241189
       0.0615   0.000240275
       0.0616   0.000239368
       0.0617   0.000238469
       0.0618   0.000237577
       0.0619   0.000236693
        0.062   0.000235817
       0.0621   0.000234948
       0.0622   0.000234086
       0.0623   0.000233232
       0.0624   0.000232385
       0.0625   0.000231544
       0.0626   0.000230711
       0.0627   0.000229885
       0.0628   0.000229065
       0.0629   0.000228252
        0.063   0.000227446
       0.0631   0.000226646
       0.0632   0.000225853
       0.0633   0.000225066
       0.0634   0.000224285
       0.0635   0.000223511
       0.0636   0.000222743
       0.0637   0.000221981
       0.0638   0.000221225
       0.0639   0.000220475
        0.064   0.000219731
       0.0641   0.000218993
       0.0642   0.000218261
       0.0643   0.000217534
       0.0644   0.000216813
       0.0645   0.000216098
       0.0646   0.000215388
       0.0647   0.000214684
       0.0648   0.000213985
       0.0649   0.000213291
        0.065   0.000212603
       0.0651   0.000211919
       0.0652   0.000211241
       0.0653   0.000210569
       0.0654   0.000209901
       0.0655   0.000209238
       0.0656    0.00020858
       0.0657   0.000207927
       0.0658   0.000207279
       0.0659   0.000206636
        0.066   0.000205997
       0.0661   0.000205363
       0.0662   0.000204734
       0.0663   0.000204109
       0.0664   0.000203489
       0.0665   0.000202874
       0.0666   0.000202263
       0.0667   0.000201656
       0.0668   0.000201053
       0.0669   0.000200455
        0.067   0.000199861
       0.0671   0.000199272
       0.0672   0.000198686
       0.0673   0.000198105
       0.0674   0.000197528
       0.0675   0.000196955
       0.0676   0.000196386
       0.0677    0.00019582
       0.0678   0.000195259
       0.0679   0.000194702
        0.068   0.000194148
       0.0681   0.000193599
       0.0682   0.000193053
       0.0683    0.00019251
       0.0684   0.000191972
       0.0685   0.000191437
       0.0686   0.000190906
       0.0687   0.000190378
       0.0688   0.000189854
       0.0689   0.000189334
        0.069   0.000188817
       0.0691   0.000188303
       0.0692   0.000187793
       0.0693   0.000187286
       0.0694   0.000186782
       0.0695   0.000186282
       0.0696   0.000185785
       0.0697   0.000185292
       0.0698   0.000184801
       0.0699   0.000184314
         0.07    0.00018383
       0.0701   0.000183349
       0.0702   0.000182871
       0.0703   0.000182397
       0.0704   0.000181925
       0.0705   0.000181456
       0.0706   0.000180991
       0.0707   0.000180528
       0.0708   0.000180068
       0.0709   0.000179611
        0.071   0.000179157
       0.0711   0.000178706
       0.0712   0.000178258
       0.0713   0.000177812
       0.0714   0.000177369
       0.0715   0.000176929
       0.0716   0.000176492
       0.0717   0.000176058
       0.0718   0.000175626
       0.0719   0.000175196
        0.072    0.00017477
       0.0721   0.000174346
       0.0722   0.000173924
       0.0723   0.000173505
       0.0724   0.000173089
       0.0725   0.000172675
       0.0726   0.000172264
       0.0727   0.000171855
       0.0728   0.000171448
       0.0729   0.000171044
        0.073   0.000170642
       0.0731   0.000170243
       0.0732   0.000169846
       0.0733   0.000169452
       0.0734   0.000169059
       0.0735   0.000168669
       0.0736   0.000168282
       0.0737   0.000167896
       0.0738   0.000167513
       0.0739   0.000167132
        0.074   0.000166753
       0.0741   0.000166377
       0.0742   0.000166002
       0.0743    0.00016563
       0.0744    0.00016526
       0.0745   0.000164892
       0.0746   0.000164526
       0.0747   0.000164162
       0.0748     0.0001638
       0.0749    0.00016344
        0.075   0.000163083
       0.0751   0.000162727
       0.0752   0.000162373
       0.0753   0.000162021
       0.0754   0.000161672
       0.0755   0.000161324
       0.0756   0.000160978
       0.0757   0.000160634
       0.0758   0.000160291
       0.0759   0.000159951
        0.076   0.000159613
       0.0761   0.000159276
       0.0762   0.000158941
       0.0763   0.000158608
       0.0764   0.000158277
       0.0765   0.000157948
       0.0766    0.00015762
       0.0767   0.000157294
       0.0768    0.00015697
       0.0769   0.000156648
        0.077   0.000156327
       0.0771   0.000156008
       0.0772   0.000155691
       0.0773   0.000155375
       0.0774   0.000155061
       0.0775   0.000154749
       0.0776   0.000154439
       0.0777    0.00015413
       0.0778   0.000153822
       0.0779   0.000153516
        0.078   0.000153212
       0.0781   0.000152909
       0.0782   0.000152608
       0.0783   0.000152309
       0.0784   0.000152011
       0.0785   0.000151714
       0.0786   0.000151419
       0.0787   0.000151126
       0.0788   0.000150834
       0.0789   0.000150544
        0.079   0.000150255
       0.0791   0.000149967
       0.0792   0.000149681
       0.0793   0.000149396
       0.0794   0.000149113
       0.0795   0.000148831
       0.0796   0.000148551
       0.0797   0.000148272
       0.0798   0.000147994
       0.0799   0.000147718
         0.08   0.000147443
       0.0801   0.000147169
       0.0802   0.000146897
       0.0803   0.000146626
       0.0804   0.000146357
       0.0805   0.000146088
       0.0806   0.000145822
       0.0807   0.000145556
       0.0808   0.000145292
       0.0809   0.000145028
        0.081   0.000144767
       0.0811   0.000144506
       0.0812   0.000144247
       0.0813   0.000143989
       0.0814   0.000143732
       0.0815   0.000143476
       0.0816   0.000143222
       0.0817   0.000142969
       0.0818   0.000142716
       0.0819   0.000142466
        0.082   0.000142216
       0.0821   0.000141968
       0.0822    0.00014172
       0.0823   0.000141474
       0.0824   0.000141229
       0.0825   0.000140985
       0.0826   0.000140742
       0.0827   0.000140501
       0.0828    0.00014026
       0.0829   0.000140021
        0.083   0.000139782
       0.0831   0.000139545
       0.0832   0.000139309
       0.0833   0.000139074
       0.0834    0.00013884
       0.0835   0.000138607
       0.0836   0.000138375
       0.0837   0.000138144
       0.0838   0.000137915
       0.0839   0.000137686
        0.084   0.000137458
       0.0841   0.000137231
       0.0842   0.000137006
       0.0843   0.000136781
       0.0844   0.000136557
       0.0845   0.000136334
       0.0846   0.000136113
       0.0847   0.000135892
       0.0848   0.000135672
       0.0849   0.000135453
        0.085   0.000135236
       0.0851   0.000135019
       0.0852   0.000134803
       0.0853   0.000134588
       0.0854   0.000134374
       0.0855    0.00013416
       0.0856   0.000133948
       0.0857   0.000133737
       0.0858   0.000133526
       0.0859   0.000133317
        0.086   0.000133108
       0.0861   0.000132901
       0.0862   0.000132694
       0.0863   0.000132488
       0.0864   0.000132283
       0.0865   0.000132078
       0.0866   0.000131875
       0.0867   0.000131673
       0.0868   0.000131471
       0.0869    0.00013127
        0.087    0.00013107
       0.0871   0.000130871
       0.0872   0.000130673
       0.0873   0.000130475
       0.0874   0.000130279
       0.0875   0.000130083
       0.0876   0.000129888
       0.0877   0.000129694
       0.0878     0.0001295
       0.0879   0.000129308
        0.088   0.000129116
       0.0881   0.000128925
       0.0882   0.000128735
       0.0883   0.000128545
       0.0884   0.000128356
       0.0885   0.000128168
       0.0886   0.000127981
       0.0887   0.000127795
       0.0888   0.000127609
       0.0889   0.000127424
        0.089    0.00012724
       0.0891   0.000127057
       0.0892   0.000126874
       0.0893   0.000126692
       0.0894   0.000126511
       0.0895    0.00012633
       0.0896    0.00012615
       0.0897   0.000125971
       0.0898   0.000125793
       0.0899   0.000125615
         0.09   0.000125438
       0.0901   0.000125262
       0.0902   0.000125086
       0.0903   0.000124911
       0.0904   0.000124737
       0.0905   0.000124563
       0.0906    0.00012439
       0.0907   0.000124218
       0.0908   0.000124047
       0.0909   0.000123876
        0.091   0.000123705
       0.0911   0.000123536
       0.0912   0.000123367
       0.0913   0.000123199
       0.0914   0.000123031
       0.0915   0.000122864
       0.0916   0.000122697
       0.0917   0.000122532
       0.0918   0.000122367
       0.0919   0.000122202
        0.092   0.000122038
       0.0921   0.000121875
       0.0922   0.000121712
       0.0923    0.00012155
       0.0924   0.000121389
       0.0925   0.000121228
       0.0926   0.000121068
       0.0927   0.000120908
       0.0928   0.000120749
       0.0929   0.000120591
        0.093   0.000120433
       0.0931   0.000120276
       0.0932   0.000120119
       0.0933   0.000119963
       0.0934   0.000119807
       0.0935   0.000119652
       0.0936   0.000119498
       0.0937   0.000119344
       0.0938   0.000119191
       0.0939   0.000119038
        0.094   0.000118886
       0.0941   0.000118734
       0.0942   0.000118583
       0.0943   0.000118433
       0.0944   0.000118283
       0.0945   0.000118133
       0.0946   0.000117984
       0.0947   0.000117836
       0.0948   0.000117688
       0.0949   0.000117541
        0.095   0.000117394
       0.0951   0.000117248
       0.0952   0.000117102
       0.0953   0.000116957
       0.0954   0.000116812
       0.0955   0.000116668
       0.0956   0.000116524
       0.0957   0.000116381
       0.0958   0.000116238
       0.0959   0.000116096
        0.096   0.000115954
       0.0961   0.000115813
       0.0962   0.000115672
       0.0963   0.000115532
       0.0964   0.000115392
       0.0965   0.000115253
       0.0966   0.000115114
       0.0967   0.000114976
       0.0968   0.000114838
       0.0969   0.000114701
        0.097   0.000114564
       0.0971   0.000114427
       0.0972   0.000114291
       0.0973   0.000114156
       0.0974   0.000114021
       0.0975   0.000113886
       0.0976   0.000113752
       0.0977   0.000113619
       0.0978   0.000113485
       0.0979   0.000113353
        0.098    0.00011322
       0.0981   0.000113088
       0.0982   0.000112957
       0.0983   0.000112826
       0.0984   0.000112695
       0.0985   0.000112565
       0.0986   0.000112436
       0.0987   0.000112306
       0.0988   0.000112178
       0.0989   0.000112049
        0.099   0.000111921
       0.0991   0.000111794
       0.0992   0.000111667
       0.0993    0.00011154
       0.0994   0.000111413
       0.0995   0.000111288
       0.0996   0.000111162
       0.0997   0.000111037
       0.0998   0.000110912
       0.0999   0.000110788
          0.1   0.000110664
