# Probe 0 (0.05 0.05 0.005)
#       Probe             0
#        Time
       0.0501       12.4882
       0.0502       12.4057
       0.0503       12.3243
       0.0504        12.244
       0.0505       12.1647
       0.0506       12.0866
       0.0507       12.0095
       0.0508       11.9334
       0.0509       11.8583
        0.051       11.7842
       0.0511       11.7111
       0.0512       11.6389
       0.0513       11.5677
       0.0514       11.4974
       0.0515        11.428
       0.0516       11.3595
       0.0517       11.2919
       0.0518       11.2252
       0.0519       11.1592
        0.052       11.0942
       0.0521       11.0299
       0.0522       10.9664
       0.0523       10.9038
       0.0524       10.8419
       0.0525       10.7808
       0.0526       10.7204
       0.0527       10.6608
       0.0528       10.6018
       0.0529       10.5437
        0.053       10.4862
       0.0531       10.4294
       0.0532       10.3733
       0.0533       10.3178
       0.0534        10.263
       0.0535       10.2089
       0.0536       10.1554
       0.0537       10.1025
       0.0538       10.0503
       0.0539       9.99865
        0.054       9.94761
       0.0541       9.89716
       0.0542       9.84729
       0.0543       9.79798
       0.0544       9.74924
       0.0545       9.70106
       0.0546       9.65342
       0.0547       9.60631
       0.0548       9.55973
       0.0549       9.51367
        0.055       9.46813
       0.0551       9.42309
       0.0552       9.37854
       0.0553       9.33449
       0.0554       9.29091
       0.0555       9.24781
       0.0556       9.20518
       0.0557       9.16301
       0.0558       9.12129
       0.0559       9.08002
        0.056       9.03919
       0.0561       8.99879
       0.0562       8.95882
       0.0563       8.91927
       0.0564       8.88014
       0.0565       8.84142
       0.0566        8.8031
       0.0567       8.76517
       0.0568       8.72764
       0.0569       8.69049
        0.057       8.65373
       0.0571       8.61734
       0.0572       8.58132
       0.0573       8.54566
       0.0574       8.51036
       0.0575       8.47542
       0.0576       8.44083
       0.0577       8.40658
       0.0578       8.37267
       0.0579        8.3391
        0.058       8.30586
       0.0581       8.27294
       0.0582       8.24035
       0.0583       8.20807
       0.0584       8.17611
       0.0585       8.14445
       0.0586        8.1131
       0.0587       8.08205
       0.0588       8.05129
       0.0589       8.02083
        0.059       7.99066
       0.0591       7.96077
       0.0592       7.93116
       0.0593       7.90183
       0.0594       7.87277
       0.0595       7.84398
       0.0596       7.81546
       0.0597        7.7872
       0.0598        7.7592
       0.0599       7.73146
         0.06       7.70397
       0.0601       7.67673
       0.0602       7.64973
       0.0603       7.62298
       0.0604       7.59647
       0.0605        7.5702
       0.0606       7.54416
       0.0607       7.51835
       0.0608       7.49277
       0.0609       7.46742
        0.061       7.44229
       0.0611       7.41737
       0.0612       7.39268
       0.0613        7.3682
       0.0614       7.34393
       0.0615       7.31987
       0.0616       7.29602
       0.0617       7.27237
       0.0618       7.24892
       0.0619       7.22567
        0.062       7.20262
       0.0621       7.17977
       0.0622        7.1571
       0.0623       7.13463
       0.0624       7.11234
       0.0625       7.09024
       0.0626       7.06832
       0.0627       7.04658
       0.0628       7.02502
       0.0629       7.00364
        0.063       6.98243
       0.0631        6.9614
       0.0632       6.94053
       0.0633       6.91984
       0.0634       6.89931
       0.0635       6.87894
       0.0636       6.85874
       0.0637        6.8387
       0.0638       6.81882
       0.0639        6.7991
        0.064       6.77953
       0.0641       6.76011
       0.0642       6.74085
       0.0643       6.72174
       0.0644       6.70277
       0.0645       6.68396
       0.0646       6.66528
       0.0647       6.64676
       0.0648       6.62837
       0.0649       6.61013
        0.065       6.59202
       0.0651       6.57405
       0.0652       6.55622
       0.0653       6.53852
       0.0654       6.52096
       0.0655       6.50352
       0.0656       6.48622
       0.0657       6.46905
       0.0658         6.452
       0.0659       6.43508
        0.066       6.41828
       0.0661       6.40161
       0.0662       6.38506
       0.0663       6.36863
       0.0664       6.35232
       0.0665       6.33612
       0.0666       6.32005
       0.0667       6.30409
       0.0668       6.28824
       0.0669       6.27251
        0.067       6.25689
       0.0671       6.24139
       0.0672       6.22599
       0.0673        6.2107
       0.0674       6.19551
       0.0675       6.18044
       0.0676       6.16547
       0.0677        6.1506
       0.0678       6.13584
       0.0679       6.12118
        0.068       6.10662
       0.0681       6.09216
       0.0682        6.0778
       0.0683       6.06354
       0.0684       6.04938
       0.0685       6.03531
       0.0686       6.02134
       0.0687       6.00746
       0.0688       5.99368
       0.0689       5.97998
        0.069       5.96638
       0.0691       5.95287
       0.0692       5.93945
       0.0693       5.92612
       0.0694       5.91288
       0.0695       5.89973
       0.0696       5.88666
       0.0697       5.87367
       0.0698       5.86077
       0.0699       5.84796
         0.07       5.83523
       0.0701       5.82258
       0.0702       5.81001
       0.0703       5.79752
       0.0704       5.78512
       0.0705       5.77279
       0.0706       5.76054
       0.0707       5.74837
       0.0708       5.73628
       0.0709       5.72426
        0.071       5.71232
       0.0711       5.70045
       0.0712       5.68866
       0.0713       5.67694
       0.0714       5.66529
       0.0715       5.65372
       0.0716       5.64222
       0.0717       5.63079
       0.0718       5.61943
       0.0719       5.60814
        0.072       5.59691
       0.0721       5.58576
       0.0722       5.57467
       0.0723       5.56366
       0.0724        5.5527
       0.0725       5.54182
       0.0726         5.531
       0.0727       5.52024
       0.0728       5.50955
       0.0729       5.49892
        0.073       5.48836
       0.0731       5.47786
       0.0732       5.46742
       0.0733       5.45704
       0.0734       5.44672
       0.0735       5.43646
       0.0736       5.42626
       0.0737       5.41613
       0.0738       5.40605
       0.0739       5.39603
        0.074       5.38606
       0.0741       5.37616
       0.0742       5.36631
       0.0743       5.35652
       0.0744       5.34678
       0.0745        5.3371
       0.0746       5.32748
       0.0747       5.31791
       0.0748       5.30839
       0.0749       5.29893
        0.075       5.28951
       0.0751       5.28016
       0.0752       5.27085
       0.0753        5.2616
       0.0754        5.2524
       0.0755       5.24325
       0.0756       5.23415
       0.0757        5.2251
       0.0758       5.21609
       0.0759       5.20714
        0.076       5.19824
       0.0761       5.18939
       0.0762       5.18058
       0.0763       5.17182
       0.0764       5.16311
       0.0765       5.15445
       0.0766       5.14583
       0.0767       5.13726
       0.0768       5.12874
       0.0769       5.12026
        0.077       5.11183
       0.0771       5.10344
       0.0772       5.09509
       0.0773       5.08679
       0.0774       5.07853
       0.0775       5.07032
       0.0776       5.06215
       0.0777       5.05402
       0.0778       5.04594
       0.0779       5.03789
        0.078       5.02989
       0.0781       5.02193
       0.0782       5.01401
       0.0783       5.00613
       0.0784        4.9983
       0.0785        4.9905
       0.0786       4.98274
       0.0787       4.97502
       0.0788       4.96734
       0.0789        4.9597
        0.079        4.9521
       0.0791       4.94454
       0.0792       4.93701
       0.0793       4.92952
       0.0794       4.92207
       0.0795       4.91466
       0.0796       4.90729
       0.0797       4.89995
       0.0798       4.89264
       0.0799       4.88538
         0.08       4.87815
       0.0801       4.87095
       0.0802       4.86379
       0.0803       4.85667
       0.0804       4.84958
       0.0805       4.84252
       0.0806        4.8355
       0.0807       4.82851
       0.0808       4.82156
       0.0809       4.81464
        0.081       4.80775
       0.0811        4.8009
       0.0812       4.79408
       0.0813       4.78729
       0.0814       4.78053
       0.0815       4.77381
       0.0816       4.76712
       0.0817       4.76046
       0.0818       4.75383
       0.0819       4.74723
        0.082       4.74066
       0.0821       4.73413
       0.0822       4.72762
       0.0823       4.72115
       0.0824        4.7147
       0.0825       4.70829
       0.0826        4.7019
       0.0827       4.69555
       0.0828       4.68922
       0.0829       4.68292
        0.083       4.67666
       0.0831       4.67042
       0.0832        4.6642
       0.0833       4.65802
       0.0834       4.65187
       0.0835       4.64574
       0.0836       4.63964
       0.0837       4.63357
       0.0838       4.62752
       0.0839       4.62151
        0.084       4.61552
       0.0841       4.60955
       0.0842       4.60362
       0.0843       4.59771
       0.0844       4.59182
       0.0845       4.58596
       0.0846       4.58013
       0.0847       4.57433
       0.0848       4.56854
       0.0849       4.56279
        0.085       4.55706
       0.0851       4.55135
       0.0852       4.54567
       0.0853       4.54002
       0.0854       4.53439
       0.0855       4.52878
       0.0856        4.5232
       0.0857       4.51764
       0.0858        4.5121
       0.0859       4.50659
        0.086       4.50111
       0.0861       4.49564
       0.0862        4.4902
       0.0863       4.48479
       0.0864       4.47939
       0.0865       4.47402
       0.0866       4.46867
       0.0867       4.46334
       0.0868       4.45804
       0.0869       4.45276
        0.087        4.4475
       0.0871       4.44226
       0.0872       4.43705
       0.0873       4.43185
       0.0874       4.42668
       0.0875       4.42153
       0.0876        4.4164
       0.0877       4.41129
       0.0878       4.40621
       0.0879       4.40114
        0.088       4.39609
       0.0881       4.39107
       0.0882       4.38607
       0.0883       4.38108
       0.0884       4.37612
       0.0885       4.37117
       0.0886       4.36625
       0.0887       4.36135
       0.0888       4.35646
       0.0889        4.3516
        0.089       4.34675
       0.0891       4.34193
       0.0892       4.33712
       0.0893       4.33234
       0.0894       4.32757
       0.0895       4.32282
       0.0896       4.31809
       0.0897       4.31338
       0.0898       4.30869
       0.0899       4.30401
         0.09       4.29936
       0.0901       4.29472
       0.0902        4.2901
       0.0903        4.2855
       0.0904       4.28091
       0.0905       4.27635
       0.0906        4.2718
       0.0907       4.26727
       0.0908       4.26276
       0.0909       4.25826
        0.091       4.25378
       0.0911       4.24932
       0.0912       4.24488
       0.0913       4.24045
       0.0914       4.23604
       0.0915       4.23165
       0.0916       4.22727
       0.0917       4.22291
       0.0918       4.21857
       0.0919       4.21424
        0.092       4.20993
       0.0921       4.20564
       0.0922       4.20136
       0.0923        4.1971
       0.0924       4.19285
       0.0925       4.18862
       0.0926       4.18441
       0.0927       4.18021
       0.0928       4.17603
       0.0929       4.17186
        0.093       4.16771
       0.0931       4.16357
       0.0932       4.15945
       0.0933       4.15534
       0.0934       4.15125
       0.0935       4.14718
       0.0936       4.14312
       0.0937       4.13907
       0.0938       4.13504
       0.0939       4.13102
        0.094       4.12702
       0.0941       4.12303
       0.0942       4.11906
       0.0943        4.1151
       0.0944       4.11115
       0.0945       4.10722
       0.0946        4.1033
       0.0947        4.0994
       0.0948       4.09551
       0.0949       4.09164
        0.095       4.08778
       0.0951       4.08393
       0.0952       4.08009
       0.0953       4.07627
       0.0954       4.07247
       0.0955       4.06867
       0.0956       4.06489
       0.0957       4.06113
       0.0958       4.05737
       0.0959       4.05363
        0.096       4.04991
       0.0961       4.04619
       0.0962       4.04249
       0.0963        4.0388
       0.0964       4.03513
       0.0965       4.03146
       0.0966       4.02781
       0.0967       4.02417
       0.0968       4.02055
       0.0969       4.01694
        0.097       4.01334
       0.0971       4.00975
       0.0972       4.00617
       0.0973       4.00261
       0.0974       3.99906
       0.0975       3.99552
       0.0976       3.99199
       0.0977       3.98847
       0.0978       3.98497
       0.0979       3.98148
        0.098         3.978
       0.0981       3.97453
       0.0982       3.97107
       0.0983       3.96763
       0.0984       3.96419
       0.0985       3.96077
       0.0986       3.95736
       0.0987       3.95396
       0.0988       3.95057
       0.0989       3.94719
        0.099       3.94383
       0.0991       3.94047
       0.0992       3.93713
       0.0993        3.9338
       0.0994       3.93048
       0.0995       3.92716
       0.0996       3.92386
       0.0997       3.92057
       0.0998        3.9173
       0.0999       3.91403
          0.1       3.91077
