# Probe 0 (0.05 0.05 0.005)
#       Probe             0
#        Time
       0.0501        3.2895
       0.0502       3.28086
       0.0503       3.27228
       0.0504       3.26377
       0.0505       3.25531
       0.0506       3.24691
       0.0507       3.23857
       0.0508       3.23029
       0.0509       3.22207
        0.051        3.2139
       0.0511       3.20579
       0.0512       3.19774
       0.0513       3.18974
       0.0514        3.1818
       0.0515       3.17391
       0.0516       3.16608
       0.0517        3.1583
       0.0518       3.15058
       0.0519        3.1429
        0.052       3.13528
       0.0521       3.12771
       0.0522        3.1202
       0.0523       3.11273
       0.0524       3.10531
       0.0525       3.09795
       0.0526       3.09063
       0.0527       3.08336
       0.0528       3.07614
       0.0529       3.06897
        0.053       3.06185
       0.0531       3.05478
       0.0532       3.04775
       0.0533       3.04076
       0.0534       3.03383
       0.0535       3.02694
       0.0536       3.02009
       0.0537       3.01329
       0.0538       3.00654
       0.0539       2.99982
        0.054       2.99316
       0.0541       2.98653
       0.0542       2.97995
       0.0543       2.97341
       0.0544       2.96691
       0.0545       2.96046
       0.0546       2.95404
       0.0547       2.94767
       0.0548       2.94134
       0.0549       2.93504
        0.055       2.92879
       0.0551       2.92258
       0.0552       2.91641
       0.0553       2.91027
       0.0554       2.90418
       0.0555       2.89812
       0.0556        2.8921
       0.0557       2.88611
       0.0558       2.88017
       0.0559       2.87426
        0.056       2.86839
       0.0561       2.86255
       0.0562       2.85675
       0.0563       2.85099
       0.0564       2.84526
       0.0565       2.83957
       0.0566       2.83391
       0.0567       2.82828
       0.0568       2.82269
       0.0569       2.81713
        0.057       2.81161
       0.0571       2.80612
       0.0572       2.80066
       0.0573       2.79524
       0.0574       2.78984
       0.0575       2.78448
       0.0576       2.77916
       0.0577       2.77386
       0.0578       2.76859
       0.0579       2.76336
        0.058       2.75815
       0.0581       2.75298
       0.0582       2.74784
       0.0583       2.74272
       0.0584       2.73764
       0.0585       2.73259
       0.0586       2.72756
       0.0587       2.72256
       0.0588        2.7176
       0.0589       2.71266
        0.059       2.70775
       0.0591       2.70286
       0.0592       2.69801
       0.0593       2.69318
       0.0594       2.68838
       0.0595       2.68361
       0.0596       2.67886
       0.0597       2.67414
       0.0598       2.66945
       0.0599       2.66478
         0.06       2.66014
       0.0601       2.65553
       0.0602       2.65094
       0.0603       2.64637
       0.0604       2.64184
       0.0605       2.63732
       0.0606       2.63283
       0.0607       2.62837
       0.0608       2.62393
       0.0609       2.61951
        0.061       2.61512
       0.0611       2.61075
       0.0612       2.60641
       0.0613       2.60208
       0.0614       2.59779
       0.0615       2.59351
       0.0616       2.58926
       0.0617       2.58503
       0.0618       2.58082
       0.0619       2.57664
        0.062       2.57247
       0.0621       2.56833
       0.0622       2.56421
       0.0623       2.56011
       0.0624       2.55604
       0.0625       2.55198
       0.0626       2.54795
       0.0627       2.54394
       0.0628       2.53994
       0.0629       2.53597
        0.063       2.53202
       0.0631       2.52809
       0.0632       2.52418
       0.0633       2.52029
       0.0634       2.51642
       0.0635       2.51257
       0.0636       2.50873
       0.0637       2.50492
       0.0638       2.50113
       0.0639       2.49735
        0.064        2.4936
       0.0641       2.48986
       0.0642       2.48614
       0.0643       2.48244
       0.0644       2.47876
       0.0645        2.4751
       0.0646       2.47146
       0.0647       2.46783
       0.0648       2.46422
       0.0649       2.46063
        0.065       2.45706
       0.0651        2.4535
       0.0652       2.44996
       0.0653       2.44644
       0.0654       2.44293
       0.0655       2.43945
       0.0656       2.43597
       0.0657       2.43252
       0.0658       2.42908
       0.0659       2.42566
        0.066       2.42226
       0.0661       2.41887
       0.0662       2.41549
       0.0663       2.41214
       0.0664        2.4088
       0.0665       2.40547
       0.0666       2.40216
       0.0667       2.39887
       0.0668       2.39559
       0.0669       2.39232
        0.067       2.38908
       0.0671       2.38584
       0.0672       2.38262
       0.0673       2.37942
       0.0674       2.37623
       0.0675       2.37306
       0.0676        2.3699
       0.0677       2.36675
       0.0678       2.36362
       0.0679       2.36051
        0.068        2.3574
       0.0681       2.35431
       0.0682       2.35124
       0.0683       2.34818
       0.0684       2.34513
       0.0685        2.3421
       0.0686       2.33908
       0.0687       2.33607
       0.0688       2.33308
       0.0689        2.3301
        0.069       2.32713
       0.0691       2.32418
       0.0692       2.32124
       0.0693       2.31831
       0.0694        2.3154
       0.0695        2.3125
       0.0696       2.30961
       0.0697       2.30673
       0.0698       2.30386
       0.0699       2.30101
         0.07       2.29817
       0.0701       2.29535
       0.0702       2.29253
       0.0703       2.28973
       0.0704       2.28694
       0.0705       2.28416
       0.0706       2.28139
       0.0707       2.27863
       0.0708       2.27589
       0.0709       2.27316
        0.071       2.27044
       0.0711       2.26773
       0.0712       2.26503
       0.0713       2.26234
       0.0714       2.25967
       0.0715         2.257
       0.0716       2.25435
       0.0717       2.25171
       0.0718       2.24908
       0.0719       2.24646
        0.072       2.24385
       0.0721       2.24125
       0.0722       2.23866
       0.0723       2.23608
       0.0724       2.23351
       0.0725       2.23096
       0.0726       2.22841
       0.0727       2.22587
       0.0728       2.22335
       0.0729       2.22083
        0.073       2.21833
       0.0731       2.21583
       0.0732       2.21335
       0.0733       2.21087
       0.0734        2.2084
       0.0735       2.20595
       0.0736        2.2035
       0.0737       2.20107
       0.0738       2.19864
       0.0739       2.19622
        0.074       2.19381
       0.0741       2.19142
       0.0742       2.18903
       0.0743       2.18665
       0.0744       2.18428
       0.0745       2.18192
       0.0746       2.17956
       0.0747       2.17722
       0.0748       2.17489
       0.0749       2.17256
        0.075       2.17025
       0.0751       2.16794
       0.0752       2.16564
       0.0753       2.16335
       0.0754       2.16107
       0.0755        2.1588
       0.0756       2.15654
       0.0757       2.15428
       0.0758       2.15204
       0.0759        2.1498
        0.076       2.14757
       0.0761       2.14535
       0.0762       2.14314
       0.0763       2.14093
       0.0764       2.13874
       0.0765       2.13655
       0.0766       2.13437
       0.0767        2.1322
       0.0768       2.13003
       0.0769       2.12788
        0.077       2.12573
       0.0771       2.12359
       0.0772       2.12146
       0.0773       2.11933
       0.0774       2.11722
       0.0775       2.11511
       0.0776       2.11301
       0.0777       2.11091
       0.0778       2.10883
       0.0779       2.10675
        0.078       2.10468
       0.0781       2.10261
       0.0782       2.10056
       0.0783       2.09851
       0.0784       2.09647
       0.0785       2.09443
       0.0786        2.0924
       0.0787       2.09039
       0.0788       2.08837
       0.0789       2.08637
        0.079       2.08437
       0.0791       2.08238
       0.0792       2.08039
       0.0793       2.07842
       0.0794       2.07644
       0.0795       2.07448
       0.0796       2.07252
       0.0797       2.07057
       0.0798       2.06863
       0.0799       2.06669
         0.08       2.06476
       0.0801       2.06284
       0.0802       2.06092
       0.0803       2.05901
       0.0804       2.05711
       0.0805       2.05521
       0.0806       2.05332
       0.0807       2.05144
       0.0808       2.04956
       0.0809       2.04769
        0.081       2.04583
       0.0811       2.04397
       0.0812       2.04212
       0.0813       2.04027
       0.0814       2.03843
       0.0815        2.0366
       0.0816       2.03477
       0.0817       2.03295
       0.0818       2.03113
       0.0819       2.02932
        0.082       2.02752
       0.0821       2.02572
       0.0822       2.02393
       0.0823       2.02214
       0.0824       2.02036
       0.0825       2.01859
       0.0826       2.01682
       0.0827       2.01506
       0.0828        2.0133
       0.0829       2.01155
        0.083       2.00981
       0.0831       2.00807
       0.0832       2.00633
       0.0833        2.0046
       0.0834       2.00288
       0.0835       2.00116
       0.0836       1.99945
       0.0837       1.99775
       0.0838       1.99605
       0.0839       1.99435
        0.084       1.99266
       0.0841       1.99098
       0.0842        1.9893
       0.0843       1.98762
       0.0844       1.98596
       0.0845       1.98429
       0.0846       1.98263
       0.0847       1.98098
       0.0848       1.97933
       0.0849       1.97769
        0.085       1.97605
       0.0851       1.97442
       0.0852       1.97279
       0.0853       1.97117
       0.0854       1.96956
       0.0855       1.96794
       0.0856       1.96634
       0.0857       1.96473
       0.0858       1.96314
       0.0859       1.96155
        0.086       1.95996
       0.0861       1.95838
       0.0862        1.9568
       0.0863       1.95522
       0.0864       1.95366
       0.0865       1.95209
       0.0866       1.95054
       0.0867       1.94898
       0.0868       1.94743
       0.0869       1.94589
        0.087       1.94435
       0.0871       1.94281
       0.0872       1.94128
       0.0873       1.93976
       0.0874       1.93823
       0.0875       1.93672
       0.0876       1.93521
       0.0877        1.9337
       0.0878       1.93219
       0.0879        1.9307
        0.088        1.9292
       0.0881       1.92771
       0.0882       1.92623
       0.0883       1.92474
       0.0884       1.92327
       0.0885       1.92179
       0.0886       1.92033
       0.0887       1.91886
       0.0888        1.9174
       0.0889       1.91595
        0.089        1.9145
       0.0891       1.91305
       0.0892       1.91161
       0.0893       1.91017
       0.0894       1.90873
       0.0895        1.9073
       0.0896       1.90587
       0.0897       1.90445
       0.0898       1.90303
       0.0899       1.90162
         0.09       1.90021
       0.0901        1.8988
       0.0902        1.8974
       0.0903         1.896
       0.0904       1.89461
       0.0905       1.89322
       0.0906       1.89183
       0.0907       1.89045
       0.0908       1.88907
       0.0909        1.8877
        0.091       1.88633
       0.0911       1.88496
       0.0912        1.8836
       0.0913       1.88224
       0.0914       1.88088
       0.0915       1.87953
       0.0916       1.87818
       0.0917       1.87684
       0.0918        1.8755
       0.0919       1.87416
        0.092       1.87283
       0.0921        1.8715
       0.0922       1.87017
       0.0923       1.86885
       0.0924       1.86753
       0.0925       1.86621
       0.0926        1.8649
       0.0927       1.86359
       0.0928       1.86229
       0.0929       1.86099
        0.093       1.85969
       0.0931        1.8584
       0.0932       1.85711
       0.0933       1.85582
       0.0934       1.85454
       0.0935       1.85326
       0.0936       1.85198
       0.0937       1.85071
       0.0938       1.84944
       0.0939       1.84817
        0.094       1.84691
       0.0941       1.84565
       0.0942       1.84439
       0.0943       1.84314
       0.0944       1.84189
       0.0945       1.84064
       0.0946        1.8394
       0.0947       1.83816
       0.0948       1.83692
       0.0949       1.83569
        0.095       1.83446
       0.0951       1.83323
       0.0952       1.83201
       0.0953       1.83079
       0.0954       1.82957
       0.0955       1.82836
       0.0956       1.82715
       0.0957       1.82594
       0.0958       1.82473
       0.0959       1.82353
        0.096       1.82233
       0.0961       1.82114
       0.0962       1.81995
       0.0963       1.81876
       0.0964       1.81757
       0.0965       1.81639
       0.0966       1.81521
       0.0967       1.81403
       0.0968       1.81286
       0.0969       1.81168
        0.097       1.81052
       0.0971       1.80935
       0.0972       1.80819
       0.0973       1.80703
       0.0974       1.80587
       0.0975       1.80472
       0.0976       1.80357
       0.0977       1.80242
       0.0978       1.80127
       0.0979       1.80013
        0.098       1.79899
       0.0981       1.79786
       0.0982       1.79672
       0.0983       1.79559
       0.0984       1.79446
       0.0985       1.79334
       0.0986       1.79222
       0.0987        1.7911
       0.0988       1.78998
       0.0989       1.78887
        0.099       1.78775
       0.0991       1.78665
       0.0992       1.78554
       0.0993       1.78444
       0.0994       1.78334
       0.0995       1.78224
       0.0996       1.78114
       0.0997       1.78005
       0.0998       1.77896
       0.0999       1.77787
          0.1       1.77679
