# Probe 0 (0.05 0.05 0.005)
#       Probe             0
#        Time
       0.0501        1947.6
       0.0502       1909.24
       0.0503        1871.9
       0.0504       1835.55
       0.0505       1800.15
       0.0506       1765.67
       0.0507       1732.09
       0.0508       1699.38
       0.0509       1667.51
        0.051       1636.45
       0.0511       1606.18
       0.0512       1576.67
       0.0513        1547.9
       0.0514       1519.85
       0.0515        1492.5
       0.0516       1465.82
       0.0517        1439.8
       0.0518       1414.41
       0.0519       1389.64
        0.052       1365.47
       0.0521       1341.88
       0.0522       1318.85
       0.0523       1296.37
       0.0524       1274.42
       0.0525       1252.99
       0.0526       1232.06
       0.0527       1211.61
       0.0528       1191.64
       0.0529       1172.12
        0.053       1153.06
       0.0531       1134.42
       0.0532       1116.21
       0.0533       1098.41
       0.0534       1081.01
       0.0535       1063.99
       0.0536       1047.35
       0.0537       1031.08
       0.0538       1015.16
       0.0539       999.596
        0.054       984.366
       0.0541       969.464
       0.0542       954.882
       0.0543       940.611
       0.0544       926.644
       0.0545       912.971
       0.0546       899.587
       0.0547       886.482
       0.0548       873.649
       0.0549       861.083
        0.055       848.775
       0.0551       836.719
       0.0552       824.909
       0.0553       813.338
       0.0554       802.001
       0.0555       790.892
       0.0556       780.004
       0.0557       769.333
       0.0558       758.873
       0.0559       748.618
        0.056       738.564
       0.0561       728.706
       0.0562       719.039
       0.0563       709.559
       0.0564        700.26
       0.0565       691.139
       0.0566       682.191
       0.0567       673.413
       0.0568       664.799
       0.0569       656.347
        0.057       648.052
       0.0571       639.911
       0.0572        631.92
       0.0573       624.075
       0.0574       616.374
       0.0575       608.813
       0.0576       601.389
       0.0577       594.099
       0.0578       586.939
       0.0579       579.906
        0.058       572.999
       0.0581       566.213
       0.0582       559.547
       0.0583       552.998
       0.0584       546.562
       0.0585       540.238
       0.0586       534.023
       0.0587       527.915
       0.0588       521.912
       0.0589        516.01
        0.059       510.208
       0.0591       504.504
       0.0592       498.896
       0.0593       493.381
       0.0594       487.958
       0.0595       482.625
       0.0596       477.379
       0.0597        472.22
       0.0598       467.144
       0.0599       462.151
         0.06       457.239
       0.0601       452.406
       0.0602        447.65
       0.0603       442.971
       0.0604       438.365
       0.0605       433.832
       0.0606       429.371
       0.0607       424.979
       0.0608       420.656
       0.0609         416.4
        0.061        412.21
       0.0611       408.085
       0.0612       404.022
       0.0613       400.022
       0.0614       396.082
       0.0615       392.202
       0.0616       388.381
       0.0617       384.616
       0.0618       380.908
       0.0619       377.255
        0.062       373.656
       0.0621        370.11
       0.0622       366.616
       0.0623       363.173
       0.0624        359.78
       0.0625       356.437
       0.0626       353.141
       0.0627       349.893
       0.0628       346.691
       0.0629       343.535
        0.063       340.424
       0.0631       337.357
       0.0632       334.332
       0.0633        331.35
       0.0634        328.41
       0.0635       325.511
       0.0636       322.651
       0.0637       319.831
       0.0638        317.05
       0.0639       314.306
        0.064         311.6
       0.0641       308.931
       0.0642       306.298
       0.0643         303.7
       0.0644       301.137
       0.0645       298.607
       0.0646       296.112
       0.0647       293.649
       0.0648       291.219
       0.0649       288.821
        0.065       286.454
       0.0651       284.118
       0.0652       281.813
       0.0653       279.536
       0.0654        277.29
       0.0655       275.072
       0.0656       272.882
       0.0657        270.72
       0.0658       268.586
       0.0659       266.478
        0.066       264.397
       0.0661       262.342
       0.0662       260.312
       0.0663       258.308
       0.0664       256.328
       0.0665       254.373
       0.0666       252.442
       0.0667       250.534
       0.0668        248.65
       0.0669       246.788
        0.067       244.949
       0.0671       243.132
       0.0672       241.337
       0.0673       239.564
       0.0674       237.811
       0.0675       236.079
       0.0676       234.368
       0.0677       232.677
       0.0678       231.005
       0.0679       229.354
        0.068       227.721
       0.0681       226.107
       0.0682       224.512
       0.0683       222.936
       0.0684       221.377
       0.0685       219.836
       0.0686       218.313
       0.0687       216.807
       0.0688       215.318
       0.0689       213.845
        0.069        212.39
       0.0691        210.95
       0.0692       209.527
       0.0693       208.119
       0.0694       206.727
       0.0695        205.35
       0.0696       203.989
       0.0697       202.642
       0.0698        201.31
       0.0699       199.992
         0.07       198.689
       0.0701         197.4
       0.0702       196.124
       0.0703       194.862
       0.0704       193.614
       0.0705       192.379
       0.0706       191.157
       0.0707       189.948
       0.0708       188.752
       0.0709       187.568
        0.071       186.396
       0.0711       185.237
       0.0712        184.09
       0.0713       182.954
       0.0714       181.831
       0.0715       180.719
       0.0716       179.618
       0.0717       178.528
       0.0718        177.45
       0.0719       176.383
        0.072       175.326
       0.0721        174.28
       0.0722       173.244
       0.0723       172.219
       0.0724       171.204
       0.0725       170.199
       0.0726       169.204
       0.0727       168.219
       0.0728       167.243
       0.0729       166.277
        0.073       165.321
       0.0731       164.373
       0.0732       163.435
       0.0733       162.506
       0.0734       161.586
       0.0735       160.675
       0.0736       159.773
       0.0737       158.879
       0.0738       157.994
       0.0739       157.117
        0.074       156.248
       0.0741       155.388
       0.0742       154.535
       0.0743       153.691
       0.0744       152.854
       0.0745       152.026
       0.0746       151.204
       0.0747       150.391
       0.0748       149.585
       0.0749       148.786
        0.075       147.995
       0.0751       147.211
       0.0752       146.434
       0.0753       145.664
       0.0754       144.901
       0.0755       144.145
       0.0756       143.396
       0.0757       142.654
       0.0758       141.918
       0.0759       141.188
        0.076       140.465
       0.0761       139.749
       0.0762       139.039
       0.0763       138.335
       0.0764       137.637
       0.0765       136.945
       0.0766        136.26
       0.0767        135.58
       0.0768       134.906
       0.0769       134.238
        0.077       133.576
       0.0771       132.919
       0.0772       132.268
       0.0773       131.623
       0.0774       130.983
       0.0775       130.349
       0.0776       129.719
       0.0777       129.096
       0.0778       128.477
       0.0779       127.864
        0.078       127.255
       0.0781       126.652
       0.0782       126.054
       0.0783       125.461
       0.0784       124.872
       0.0785       124.289
       0.0786        123.71
       0.0787       123.136
       0.0788       122.567
       0.0789       122.002
        0.079       121.442
       0.0791       120.886
       0.0792       120.335
       0.0793       119.789
       0.0794       119.246
       0.0795       118.708
       0.0796       118.175
       0.0797       117.645
       0.0798        117.12
       0.0799       116.599
         0.08       116.082
       0.0801       115.569
       0.0802        115.06
       0.0803       114.555
       0.0804       114.054
       0.0805       113.557
       0.0806       113.064
       0.0807       112.574
       0.0808       112.089
       0.0809       111.607
        0.081       111.129
       0.0811       110.654
       0.0812       110.183
       0.0813       109.716
       0.0814       109.252
       0.0815       108.792
       0.0816       108.335
       0.0817       107.881
       0.0818       107.431
       0.0819       106.985
        0.082       106.541
       0.0821       106.101
       0.0822       105.664
       0.0823       105.231
       0.0824         104.8
       0.0825       104.373
       0.0826       103.949
       0.0827       103.528
       0.0828        103.11
       0.0829       102.695
        0.083       102.284
       0.0831       101.875
       0.0832       101.469
       0.0833       101.066
       0.0834       100.666
       0.0835       100.269
       0.0836       99.8741
       0.0837       99.4826
       0.0838       99.0937
       0.0839       98.7077
        0.084       98.3244
       0.0841       97.9437
       0.0842       97.5658
       0.0843       97.1905
       0.0844       96.8178
       0.0845       96.4477
       0.0846       96.0802
       0.0847       95.7153
       0.0848       95.3528
       0.0849       94.9929
        0.085       94.6355
       0.0851       94.2805
       0.0852       93.9279
       0.0853       93.5778
       0.0854         93.23
       0.0855       92.8846
       0.0856       92.5415
       0.0857       92.2008
       0.0858       91.8623
       0.0859       91.5262
        0.086       91.1922
       0.0861       90.8606
       0.0862       90.5311
       0.0863       90.2038
       0.0864       89.8787
       0.0865       89.5558
       0.0866        89.235
       0.0867       88.9163
       0.0868       88.5997
       0.0869       88.2852
        0.087       87.9727
       0.0871       87.6623
       0.0872       87.3539
       0.0873       87.0475
       0.0874       86.7431
       0.0875       86.4407
       0.0876       86.1402
       0.0877       85.8416
       0.0878        85.545
       0.0879       85.2502
        0.088       84.9574
       0.0881       84.6664
       0.0882       84.3772
       0.0883       84.0899
       0.0884       83.8044
       0.0885       83.5207
       0.0886       83.2388
       0.0887       82.9587
       0.0888       82.6803
       0.0889       82.4037
        0.089       82.1288
       0.0891       81.8556
       0.0892        81.584
       0.0893       81.3142
       0.0894        81.046
       0.0895       80.7795
       0.0896       80.5147
       0.0897       80.2514
       0.0898       79.9898
       0.0899       79.7297
         0.09       79.4713
       0.0901       79.2144
       0.0902        78.959
       0.0903       78.7052
       0.0904        78.453
       0.0905       78.2022
       0.0906        77.953
       0.0907       77.7053
       0.0908        77.459
       0.0909       77.2142
        0.091       76.9709
       0.0911        76.729
       0.0912       76.4885
       0.0913       76.2495
       0.0914       76.0118
       0.0915       75.7756
       0.0916       75.5407
       0.0917       75.3073
       0.0918       75.0751
       0.0919       74.8444
        0.092        74.615
       0.0921       74.3869
       0.0922       74.1601
       0.0923       73.9347
       0.0924       73.7105
       0.0925       73.4876
       0.0926        73.266
       0.0927       73.0457
       0.0928       72.8266
       0.0929       72.6088
        0.093       72.3923
       0.0931       72.1769
       0.0932       71.9628
       0.0933       71.7499
       0.0934       71.5381
       0.0935       71.3276
       0.0936       71.1182
       0.0937       70.9101
       0.0938        70.703
       0.0939       70.4972
        0.094       70.2925
       0.0941       70.0889
       0.0942       69.8864
       0.0943       69.6851
       0.0944       69.4849
       0.0945       69.2857
       0.0946       69.0877
       0.0947       68.8908
       0.0948       68.6949
       0.0949       68.5001
        0.095       68.3063
       0.0951       68.1136
       0.0952        67.922
       0.0953       67.7314
       0.0954       67.5418
       0.0955       67.3532
       0.0956       67.1657
       0.0957       66.9791
       0.0958       66.7936
       0.0959        66.609
        0.096       66.4255
       0.0961       66.2429
       0.0962       66.0612
       0.0963       65.8806
       0.0964       65.7009
       0.0965       65.5221
       0.0966       65.3443
       0.0967       65.1674
       0.0968       64.9914
       0.0969       64.8164
        0.097       64.6422
       0.0971        64.469
       0.0972       64.2967
       0.0973       64.1252
       0.0974       63.9547
       0.0975        63.785
       0.0976       63.6162
       0.0977       63.4483
       0.0978       63.2812
       0.0979        63.115
        0.098       62.9497
       0.0981       62.7851
       0.0982       62.6215
       0.0983       62.4586
       0.0984       62.2966
       0.0985       62.1354
       0.0986        61.975
       0.0987       61.8154
       0.0988       61.6566
       0.0989       61.4986
        0.099       61.3415
       0.0991        61.185
       0.0992       61.0294
       0.0993       60.8746
       0.0994       60.7205
       0.0995       60.5672
       0.0996       60.4146
       0.0997       60.2628
       0.0998       60.1117
       0.0999       59.9614
          0.1       59.8118
