# Probe 0 (0.05 0.05 0.005)
#       Probe             0
#        Time
        0.001     0.0399999
        0.002     0.0399986
        0.003     0.0399928
        0.004     0.0399766
        0.005     0.0399416
        0.006     0.0398767
        0.007     0.0397684
        0.008      0.039601
        0.009     0.0393568
         0.01     0.0390164
        0.011     0.0385598
        0.012     0.0379665
        0.013     0.0372174
        0.014     0.0362952
        0.015     0.0351864
        0.016     0.0338828
        0.017     0.0323827
        0.018     0.0306925
        0.019     0.0288274
         0.02     0.0268117
        0.021     0.0246786
        0.022     0.0224687
        0.023     0.0202277
        0.024     0.0180042
        0.025     0.0158455
        0.026     0.0137949
        0.027     0.0118886
        0.028     0.0101536
        0.029    0.00860623
         0.03    0.00725256
        0.031    0.00608925
        0.032    0.00510544
        0.033    0.00428491
        0.034    0.00360843
        0.035    0.00305574
        0.036     0.0026071
        0.037    0.00224438
        0.038    0.00195161
        0.039    0.00171523
         0.04    0.00152396
        0.041    0.00136865
        0.042    0.00124197
        0.043    0.00113809
        0.044    0.00105241
        0.045   0.000981319
        0.046   0.000921965
        0.047   0.000872112
        0.048   0.000829994
        0.049   0.000794209
         0.05   0.000763642
