# Probe 0 (0.05 0.05 0.005)
#       Probe             0
#        Time
       230005    0.00046372
       230010   0.000463718
       230015   0.000463716
       230020   0.000463713
       230025   0.000463711
       230030   0.000463709
       230035   0.000463707
       230040   0.000463705
       230045   0.000463702
       230050     0.0004637
       230055   0.000463698
       230060   0.000463696
       230065   0.000463694
       230070   0.000463692
       230075   0.000463689
       230080   0.000463687
       230085   0.000463685
       230090   0.000463683
       230095   0.000463681
       230100   0.000463678
       230105   0.000463676
       230110   0.000463674
       230115   0.000463672
       230120    0.00046367
       230125   0.000463668
       230130   0.000463665
       230135   0.000463663
       230140   0.000463661
       230145   0.000463659
       230150   0.000463657
       230155   0.000463654
       230160   0.000463652
       230165    0.00046365
       230170   0.000463648
       230175   0.000463646
       230180   0.000463644
       230185   0.000463641
       230190   0.000463639
       230195   0.000463637
       230200   0.000463635
       230205   0.000463633
       230210    0.00046363
       230215   0.000463628
       230220   0.000463626
       230225   0.000463624
       230230   0.000463622
       230235    0.00046362
       230240   0.000463617
       230245   0.000463615
       230250   0.000463613
       230255   0.000463611
       230260   0.000463609
       230265   0.000463607
       230270   0.000463604
       230275   0.000463602
       230280     0.0004636
       230285   0.000463598
       230290   0.000463596
       230295   0.000463593
       230300   0.000463591
       230305   0.000463589
       230310   0.000463587
       230315   0.000463585
       230320   0.000463583
       230325    0.00046358
       230330   0.000463578
       230335   0.000463576
       230340   0.000463574
       230345   0.000463572
       230350    0.00046357
       230355   0.000463567
       230360   0.000463565
       230365   0.000463563
       230370   0.000463561
       230375   0.000463559
       230380   0.000463557
       230385   0.000463554
       230390   0.000463552
       230395    0.00046355
       230400   0.000463548
       230405   0.000463546
       230410   0.000463544
       230415   0.000463541
       230420   0.000463539
       230425   0.000463537
       230430   0.000463535
       230435   0.000463533
       230440   0.000463531
       230445   0.000463528
       230450   0.000463526
       230455   0.000463524
       230460   0.000463522
       230465    0.00046352
       230470   0.000463518
       230475   0.000463515
       230480   0.000463513
       230485   0.000463511
       230490   0.000463509
       230495   0.000463507
       230500   0.000463505
       230505   0.000463502
       230510     0.0004635
       230515   0.000463498
       230520   0.000463496
       230525   0.000463494
       230530   0.000463492
       230535   0.000463489
       230540   0.000463487
       230545   0.000463485
       230550   0.000463483
       230555   0.000463481
       230560   0.000463479
       230565   0.000463477
       230570   0.000463474
       230575   0.000463472
       230580    0.00046347
       230585   0.000463468
       230590   0.000463466
       230595   0.000463464
       230600   0.000463461
       230605   0.000463459
       230610   0.000463457
       230615   0.000463455
       230620   0.000463453
       230625   0.000463451
       230630   0.000463448
       230635   0.000463446
       230640   0.000463444
       230645   0.000463442
       230650    0.00046344
       230655   0.000463438
       230660   0.000463436
       230665   0.000463433
       230670   0.000463431
       230675   0.000463429
       230680   0.000463427
       230685   0.000463425
       230690   0.000463423
       230695    0.00046342
       230700   0.000463418
       230705   0.000463416
       230710   0.000463414
       230715   0.000463412
       230720    0.00046341
       230725   0.000463408
       230730   0.000463405
       230735   0.000463403
       230740   0.000463401
       230745   0.000463399
       230750   0.000463397
       230755   0.000463395
       230760   0.000463393
       230765    0.00046339
       230770   0.000463388
       230775   0.000463386
       230780   0.000463384
       230785   0.000463382
       230790    0.00046338
       230795   0.000463378
       230800   0.000463375
       230805   0.000463373
       230810   0.000463371
       230815   0.000463369
       230820   0.000463367
       230825   0.000463365
       230830   0.000463362
       230835    0.00046336
       230840   0.000463358
       230845   0.000463356
       230850   0.000463354
       230855   0.000463352
       230860    0.00046335
       230865   0.000463347
       230870   0.000463345
       230875   0.000463343
       230880   0.000463341
       230885   0.000463339
       230890   0.000463337
       230895   0.000463335
       230900   0.000463333
       230905    0.00046333
       230910   0.000463328
       230915   0.000463326
       230920   0.000463324
       230925   0.000463322
       230930    0.00046332
       230935   0.000463318
       230940   0.000463315
       230945   0.000463313
       230950   0.000463311
       230955   0.000463309
       230960   0.000463307
       230965   0.000463305
       230970   0.000463303
       230975     0.0004633
       230980   0.000463298
       230985   0.000463296
       230990   0.000463294
       230995   0.000463292
       231000    0.00046329
       231005   0.000463288
       231010   0.000463285
       231015   0.000463283
       231020   0.000463281
       231025   0.000463279
       231030   0.000463277
       231035   0.000463275
       231040   0.000463273
       231045   0.000463271
       231050   0.000463268
       231055   0.000463266
       231060   0.000463264
       231065   0.000463262
       231070    0.00046326
       231075   0.000463258
       231080   0.000463256
       231085   0.000463253
       231090   0.000463251
       231095   0.000463249
       231100   0.000463247
       231105   0.000463245
       231110   0.000463243
       231115   0.000463241
       231120   0.000463239
       231125   0.000463236
       231130   0.000463234
       231135   0.000463232
       231140    0.00046323
       231145   0.000463228
       231150   0.000463226
       231155   0.000463224
       231160   0.000463222
       231165   0.000463219
       231170   0.000463217
       231175   0.000463215
       231180   0.000463213
       231185   0.000463211
       231190   0.000463209
       231195   0.000463207
       231200   0.000463205
       231205   0.000463202
       231210     0.0004632
       231215   0.000463198
       231220   0.000463196
       231225   0.000463194
       231230   0.000463192
       231235    0.00046319
       231240   0.000463188
       231245   0.000463185
       231250   0.000463183
       231255   0.000463181
       231260   0.000463179
       231265   0.000463177
       231270   0.000463175
       231275   0.000463173
       231280   0.000463171
       231285   0.000463168
       231290   0.000463166
       231295   0.000463164
       231300   0.000463162
       231305    0.00046316
       231310   0.000463158
       231315   0.000463156
       231320   0.000463154
       231325   0.000463152
       231330   0.000463149
       231335   0.000463147
       231340   0.000463145
       231345   0.000463143
       231350   0.000463141
       231355   0.000463139
       231360   0.000463137
       231365   0.000463135
       231370   0.000463132
       231375    0.00046313
       231380   0.000463128
       231385   0.000463126
       231390   0.000463124
       231395   0.000463122
       231400    0.00046312
       231405   0.000463118
       231410   0.000463116
       231415   0.000463113
       231420   0.000463111
       231425   0.000463109
       231430   0.000463107
       231435   0.000463105
       231440   0.000463103
       231445   0.000463101
       231450   0.000463099
       231455   0.000463097
       231460   0.000463094
       231465   0.000463092
       231470    0.00046309
       231475   0.000463088
       231480   0.000463086
       231485   0.000463084
       231490   0.000463082
       231495    0.00046308
       231500   0.000463078
       231505   0.000463075
       231510   0.000463073
       231515   0.000463071
       231520   0.000463069
       231525   0.000463067
       231530   0.000463065
       231535   0.000463063
       231540   0.000463061
       231545   0.000463059
       231550   0.000463057
       231555   0.000463054
       231560   0.000463052
       231565    0.00046305
       231570   0.000463048
       231575   0.000463046
       231580   0.000463044
       231585   0.000463042
       231590    0.00046304
       231595   0.000463038
       231600   0.000463035
       231605   0.000463033
       231610   0.000463031
       231615   0.000463029
       231620   0.000463027
       231625   0.000463025
       231630   0.000463023
       231635   0.000463021
       231640   0.000463019
       231645   0.000463017
       231650   0.000463014
       231655   0.000463012
       231660    0.00046301
       231665   0.000463008
       231670   0.000463006
       231675   0.000463004
       231680   0.000463002
       231685      0.000463
       231690   0.000462998
       231695   0.000462996
       231700   0.000462993
       231705   0.000462991
       231710   0.000462989
       231715   0.000462987
       231720   0.000462985
       231725   0.000462983
       231730   0.000462981
       231735   0.000462979
       231740   0.000462977
       231745   0.000462975
       231750   0.000462972
       231755    0.00046297
       231760   0.000462968
       231765   0.000462966
       231770   0.000462964
       231775   0.000462962
       231780    0.00046296
       231785   0.000462958
       231790   0.000462956
       231795   0.000462954
       231800   0.000462952
       231805   0.000462949
       231810   0.000462947
       231815   0.000462945
       231820   0.000462943
       231825   0.000462941
       231830   0.000462939
       231835   0.000462937
       231840   0.000462935
       231845   0.000462933
       231850   0.000462931
       231855   0.000462929
       231860   0.000462926
       231865   0.000462924
       231870   0.000462922
       231875    0.00046292
       231880   0.000462918
       231885   0.000462916
       231890   0.000462914
       231895   0.000462912
       231900    0.00046291
       231905   0.000462908
       231910   0.000462906
       231915   0.000462903
       231920   0.000462901
       231925   0.000462899
       231930   0.000462897
       231935   0.000462895
       231940   0.000462893
       231945   0.000462891
       231950   0.000462889
       231955   0.000462887
       231960   0.000462885
       231965   0.000462883
       231970   0.000462881
       231975   0.000462878
       231980   0.000462876
       231985   0.000462874
       231990   0.000462872
       231995    0.00046287
       232000   0.000462868
       232005   0.000462866
       232010   0.000462864
       232015   0.000462862
       232020    0.00046286
       232025   0.000462858
       232030   0.000462856
       232035   0.000462853
       232040   0.000462851
       232045   0.000462849
       232050   0.000462847
       232055   0.000462845
       232060   0.000462843
       232065   0.000462841
       232070   0.000462839
       232075   0.000462837
       232080   0.000462835
       232085   0.000462833
       232090   0.000462831
       232095   0.000462829
       232100   0.000462826
       232105   0.000462824
       232110   0.000462822
       232115    0.00046282
       232120   0.000462818
       232125   0.000462816
       232130   0.000462814
       232135   0.000462812
       232140    0.00046281
       232145   0.000462808
       232150   0.000462806
       232155   0.000462804
       232160   0.000462802
       232165   0.000462799
       232170   0.000462797
       232175   0.000462795
       232180   0.000462793
       232185   0.000462791
       232190   0.000462789
       232195   0.000462787
       232200   0.000462785
       232205   0.000462783
       232210   0.000462781
       232215   0.000462779
       232220   0.000462777
       232225   0.000462775
       232230   0.000462773
       232235    0.00046277
       232240   0.000462768
       232245   0.000462766
       232250   0.000462764
       232255   0.000462762
       232260    0.00046276
       232265   0.000462758
       232270   0.000462756
       232275   0.000462754
       232280   0.000462752
       232285    0.00046275
       232290   0.000462748
       232295   0.000462746
       232300   0.000462744
       232305   0.000462741
       232310   0.000462739
       232315   0.000462737
       232320   0.000462735
       232325   0.000462733
       232330   0.000462731
       232335   0.000462729
       232340   0.000462727
       232345   0.000462725
       232350   0.000462723
       232355   0.000462721
       232360   0.000462719
       232365   0.000462717
       232370   0.000462715
       232375   0.000462713
       232380   0.000462711
       232385   0.000462708
       232390   0.000462706
       232395   0.000462704
       232400   0.000462702
       232405     0.0004627
       232410   0.000462698
       232415   0.000462696
       232420   0.000462694
       232425   0.000462692
       232430    0.00046269
       232435   0.000462688
       232440   0.000462686
       232445   0.000462684
       232450   0.000462682
       232455    0.00046268
       232460   0.000462678
       232465   0.000462675
       232470   0.000462673
       232475   0.000462671
       232480   0.000462669
       232485   0.000462667
       232490   0.000462665
       232495   0.000462663
       232500   0.000462661
       232505   0.000462659
       232510   0.000462657
       232515   0.000462655
       232520   0.000462653
       232525   0.000462651
       232530   0.000462649
       232535   0.000462647
       232540   0.000462645
       232545   0.000462643
       232550   0.000462641
       232555   0.000462638
       232560   0.000462636
       232565   0.000462634
       232570   0.000462632
       232575    0.00046263
       232580   0.000462628
       232585   0.000462626
       232590   0.000462624
       232595   0.000462622
       232600    0.00046262
       232605   0.000462618
       232610   0.000462616
       232615   0.000462614
       232620   0.000462612
       232625    0.00046261
       232630   0.000462608
       232635   0.000462606
       232640   0.000462604
       232645   0.000462602
       232650     0.0004626
       232655   0.000462597
       232660   0.000462595
       232665   0.000462593
       232670   0.000462591
       232675   0.000462589
       232680   0.000462587
       232685   0.000462585
       232690   0.000462583
       232695   0.000462581
       232700   0.000462579
       232705   0.000462577
       232710   0.000462575
       232715   0.000462573
       232720   0.000462571
       232725   0.000462569
       232730   0.000462567
       232735   0.000462565
       232740   0.000462563
       232745   0.000462561
       232750   0.000462559
       232755   0.000462557
       232760   0.000462554
       232765   0.000462552
       232770    0.00046255
       232775   0.000462548
       232780   0.000462546
       232785   0.000462544
       232790   0.000462542
       232795    0.00046254
       232800   0.000462538
       232805   0.000462536
       232810   0.000462534
       232815   0.000462532
       232820    0.00046253
       232825   0.000462528
       232830   0.000462526
       232835   0.000462524
       232840   0.000462522
       232845    0.00046252
       232850   0.000462518
       232855   0.000462516
       232860   0.000462514
       232865   0.000462512
       232870    0.00046251
       232875   0.000462508
       232880   0.000462506
       232885   0.000462503
       232890   0.000462501
       232895   0.000462499
       232900   0.000462497
       232905   0.000462495
       232910   0.000462493
       232915   0.000462491
       232920   0.000462489
       232925   0.000462487
       232930   0.000462485
       232935   0.000462483
       232940   0.000462481
       232945   0.000462479
       232950   0.000462477
       232955   0.000462475
       232960   0.000462473
       232965   0.000462471
       232970   0.000462469
       232975   0.000462467
       232980   0.000462465
       232985   0.000462463
       232990   0.000462461
       232995   0.000462459
       233000   0.000462457
       233005   0.000462455
       233010   0.000462453
       233015   0.000462451
       233020   0.000462449
       233025   0.000462447
       233030   0.000462445
       233035   0.000462442
       233040    0.00046244
       233045   0.000462438
       233050   0.000462436
       233055   0.000462434
       233060   0.000462432
       233065    0.00046243
       233070   0.000462428
       233075   0.000462426
       233080   0.000462424
       233085   0.000462422
       233090    0.00046242
       233095   0.000462418
       233100   0.000462416
       233105   0.000462414
       233110   0.000462412
       233115    0.00046241
       233120   0.000462408
       233125   0.000462406
       233130   0.000462404
       233135   0.000462402
       233140     0.0004624
       233145   0.000462398
       233150   0.000462396
       233155   0.000462394
       233160   0.000462392
       233165    0.00046239
       233170   0.000462388
       233175   0.000462386
       233180   0.000462384
       233185   0.000462382
       233190    0.00046238
       233195   0.000462378
       233200   0.000462376
       233205   0.000462374
       233210   0.000462372
       233215    0.00046237
       233220   0.000462368
       233225   0.000462366
       233230   0.000462364
       233235   0.000462362
       233240   0.000462359
       233245   0.000462357
       233250   0.000462355
       233255   0.000462353
       233260   0.000462351
       233265   0.000462349
       233270   0.000462347
       233275   0.000462345
       233280   0.000462343
       233285   0.000462341
       233290   0.000462339
       233295   0.000462337
       233300   0.000462335
       233305   0.000462333
       233310   0.000462331
       233315   0.000462329
       233320   0.000462327
       233325   0.000462325
       233330   0.000462323
       233335   0.000462321
       233340   0.000462319
       233345   0.000462317
       233350   0.000462315
       233355   0.000462313
       233360   0.000462311
       233365   0.000462309
       233370   0.000462307
       233375   0.000462305
       233380   0.000462303
       233385   0.000462301
       233390   0.000462299
       233395   0.000462297
       233400   0.000462295
       233405   0.000462293
       233410   0.000462291
       233415   0.000462289
       233420   0.000462287
       233425   0.000462285
       233430   0.000462283
       233435   0.000462281
       233440   0.000462279
       233445   0.000462277
       233450   0.000462275
       233455   0.000462273
       233460   0.000462271
       233465   0.000462269
       233470   0.000462267
       233475   0.000462265
       233480   0.000462263
       233485   0.000462261
       233490   0.000462259
       233495   0.000462257
       233500   0.000462255
       233505   0.000462253
       233510   0.000462251
       233515   0.000462249
       233520   0.000462247
       233525   0.000462245
       233530   0.000462243
       233535   0.000462241
       233540   0.000462239
       233545   0.000462237
       233550   0.000462235
       233555   0.000462233
       233560   0.000462231
       233565   0.000462229
       233570   0.000462227
       233575   0.000462225
       233580   0.000462223
       233585   0.000462221
       233590   0.000462219
       233595   0.000462217
       233600   0.000462215
       233605   0.000462213
       233610   0.000462211
       233615   0.000462209
       233620   0.000462207
       233625   0.000462205
       233630   0.000462203
       233635   0.000462201
       233640   0.000462199
       233645   0.000462197
       233650   0.000462195
       233655   0.000462193
       233660   0.000462191
       233665   0.000462189
       233670   0.000462187
       233675   0.000462185
       233680   0.000462183
       233685   0.000462181
       233690   0.000462179
       233695   0.000462177
       233700   0.000462175
       233705   0.000462173
       233710   0.000462171
       233715   0.000462169
       233720   0.000462167
       233725   0.000462165
       233730   0.000462163
       233735   0.000462161
       233740   0.000462159
       233745   0.000462157
       233750   0.000462155
       233755   0.000462153
       233760   0.000462151
       233765   0.000462149
       233770   0.000462147
       233775   0.000462145
       233780   0.000462143
       233785   0.000462141
       233790   0.000462139
       233795   0.000462137
       233800   0.000462135
       233805   0.000462133
       233810   0.000462131
       233815   0.000462129
       233820   0.000462127
       233825   0.000462125
       233830   0.000462123
       233835   0.000462121
       233840   0.000462119
       233845   0.000462117
       233850   0.000462115
       233855   0.000462113
       233860   0.000462111
       233865   0.000462109
       233870   0.000462107
       233875   0.000462105
       233880   0.000462103
       233885   0.000462101
       233890   0.000462099
       233895   0.000462097
       233900   0.000462095
       233905   0.000462093
       233910   0.000462091
       233915   0.000462089
       233920   0.000462087
       233925   0.000462085
       233930   0.000462083
       233935   0.000462081
       233940   0.000462079
       233945   0.000462077
       233950   0.000462075
       233955   0.000462073
       233960   0.000462071
       233965   0.000462069
       233970   0.000462067
       233975   0.000462065
       233980   0.000462063
       233985   0.000462061
       233990   0.000462059
       233995   0.000462057
       234000   0.000462055
       234005   0.000462053
       234010   0.000462051
       234015   0.000462049
       234020   0.000462047
       234025   0.000462046
       234030   0.000462044
       234035   0.000462042
       234040    0.00046204
       234045   0.000462038
       234050   0.000462036
       234055   0.000462034
       234060   0.000462032
       234065    0.00046203
       234070   0.000462028
       234075   0.000462026
       234080   0.000462024
       234085   0.000462022
       234090    0.00046202
       234095   0.000462018
       234100   0.000462016
       234105   0.000462014
       234110   0.000462012
       234115    0.00046201
       234120   0.000462008
       234125   0.000462006
       234130   0.000462004
       234135   0.000462002
       234140      0.000462
       234145   0.000461998
       234150   0.000461996
       234155   0.000461994
       234160   0.000461992
       234165    0.00046199
       234170   0.000461988
       234175   0.000461986
       234180   0.000461984
       234185   0.000461982
       234190    0.00046198
       234195   0.000461978
       234200   0.000461976
       234205   0.000461974
       234210   0.000461972
       234215    0.00046197
       234220   0.000461968
       234225   0.000461966
       234230   0.000461965
       234235   0.000461963
       234240   0.000461961
       234245   0.000461959
       234250   0.000461957
       234255   0.000461955
       234260   0.000461953
       234265   0.000461951
       234270   0.000461949
       234275   0.000461947
       234280   0.000461945
       234285   0.000461943
       234290   0.000461941
       234295   0.000461939
       234300   0.000461937
       234305   0.000461935
       234310   0.000461933
       234315   0.000461931
       234320   0.000461929
       234325   0.000461927
       234330   0.000461925
       234335   0.000461923
       234340   0.000461921
       234345   0.000461919
       234350   0.000461917
       234355   0.000461915
       234360   0.000461913
       234365   0.000461911
       234370   0.000461909
       234375   0.000461907
       234380   0.000461905
       234385   0.000461904
       234390   0.000461902
       234395     0.0004619
       234400   0.000461898
       234405   0.000461896
       234410   0.000461894
       234415   0.000461892
       234420    0.00046189
       234425   0.000461888
       234430   0.000461886
       234435   0.000461884
       234440   0.000461882
       234445    0.00046188
       234450   0.000461878
       234455   0.000461876
       234460   0.000461874
       234465   0.000461872
       234470    0.00046187
       234475   0.000461868
       234480   0.000461866
       234485   0.000461864
       234490   0.000461862
       234495    0.00046186
       234500   0.000461858
       234505   0.000461856
       234510   0.000461855
       234515   0.000461853
       234520   0.000461851
       234525   0.000461849
       234530   0.000461847
       234535   0.000461845
       234540   0.000461843
       234545   0.000461841
       234550   0.000461839
       234555   0.000461837
       234560   0.000461835
       234565   0.000461833
       234570   0.000461831
       234575   0.000461829
       234580   0.000461827
       234585   0.000461825
       234590   0.000461823
       234595   0.000461821
       234600   0.000461819
       234605   0.000461817
       234610   0.000461815
       234615   0.000461813
       234620   0.000461812
       234625    0.00046181
       234630   0.000461808
       234635   0.000461806
       234640   0.000461804
       234645   0.000461802
       234650     0.0004618
       234655   0.000461798
       234660   0.000461796
       234665   0.000461794
       234670   0.000461792
       234675    0.00046179
       234680   0.000461788
       234685   0.000461786
       234690   0.000461784
       234695   0.000461782
       234700    0.00046178
       234705   0.000461778
       234710   0.000461776
       234715   0.000461774
       234720   0.000461773
       234725   0.000461771
       234730   0.000461769
       234735   0.000461767
       234740   0.000461765
       234745   0.000461763
       234750   0.000461761
       234755   0.000461759
       234760   0.000461757
       234765   0.000461755
       234770   0.000461753
       234775   0.000461751
       234780   0.000461749
       234785   0.000461747
       234790   0.000461745
       234795   0.000461743
       234800   0.000461741
       234805   0.000461739
       234810   0.000461738
       234815   0.000461736
       234820   0.000461734
       234825   0.000461732
       234830    0.00046173
       234835   0.000461728
       234840   0.000461726
       234845   0.000461724
       234850   0.000461722
       234855    0.00046172
       234860   0.000461718
       234865   0.000461716
       234870   0.000461714
       234875   0.000461712
       234880    0.00046171
       234885   0.000461708
       234890   0.000461706
       234895   0.000461705
       234900   0.000461703
       234905   0.000461701
       234910   0.000461699
       234915   0.000461697
       234920   0.000461695
       234925   0.000461693
       234930   0.000461691
       234935   0.000461689
       234940   0.000461687
       234945   0.000461685
       234950   0.000461683
       234955   0.000461681
       234960   0.000461679
       234965   0.000461677
       234970   0.000461675
       234975   0.000461674
       234980   0.000461672
       234985    0.00046167
       234990   0.000461668
       234995   0.000461666
       235000   0.000461664
       235005   0.000461662
       235010    0.00046166
       235015   0.000461658
       235020   0.000461656
       235025   0.000461654
       235030   0.000461652
       235035    0.00046165
       235040   0.000461648
       235045   0.000461646
       235050   0.000461645
       235055   0.000461643
       235060   0.000461641
       235065   0.000461639
       235070   0.000461637
       235075   0.000461635
       235080   0.000461633
       235085   0.000461631
       235090   0.000461629
       235095   0.000461627
       235100   0.000461625
       235105   0.000461623
       235110   0.000461621
       235115   0.000461619
       235120   0.000461618
       235125   0.000461616
       235130   0.000461614
       235135   0.000461612
       235140    0.00046161
       235145   0.000461608
       235150   0.000461606
       235155   0.000461604
       235160   0.000461602
       235165     0.0004616
       235170   0.000461598
       235175   0.000461596
       235180   0.000461594
       235185   0.000461592
       235190   0.000461591
       235195   0.000461589
       235200   0.000461587
       235205   0.000461585
       235210   0.000461583
       235215   0.000461581
       235220   0.000461579
       235225   0.000461577
       235230   0.000461575
       235235   0.000461573
       235240   0.000461571
       235245   0.000461569
       235250   0.000461567
       235255   0.000461566
       235260   0.000461564
       235265   0.000461562
       235270    0.00046156
       235275   0.000461558
       235280   0.000461556
       235285   0.000461554
       235290   0.000461552
       235295    0.00046155
       235300   0.000461548
       235305   0.000461546
       235310   0.000461544
       235315   0.000461543
       235320   0.000461541
       235325   0.000461539
       235330   0.000461537
       235335   0.000461535
       235340   0.000461533