# Probe 0 (0.05 0.05 0.005)
#       Probe             0
#        Time
       230005   0.000207201
       230010     0.0002072
       230015   0.000207198
       230020   0.000207197
       230025   0.000207196
       230030   0.000207195
       230035   0.000207193
       230040   0.000207192
       230045   0.000207191
       230050    0.00020719
       230055   0.000207188
       230060   0.000207187
       230065   0.000207186
       230070   0.000207185
       230075   0.000207183
       230080   0.000207182
       230085   0.000207181
       230090   0.000207179
       230095   0.000207178
       230100   0.000207177
       230105   0.000207176
       230110   0.000207174
       230115   0.000207173
       230120   0.000207172
       230125   0.000207171
       230130   0.000207169
       230135   0.000207168
       230140   0.000207167
       230145   0.000207165
       230150   0.000207164
       230155   0.000207163
       230160   0.000207162
       230165    0.00020716
       230170   0.000207159
       230175   0.000207158
       230180   0.000207157
       230185   0.000207155
       230190   0.000207154
       230195   0.000207153
       230200   0.000207152
       230205    0.00020715
       230210   0.000207149
       230215   0.000207148
       230220   0.000207147
       230225   0.000207145
       230230   0.000207144
       230235   0.000207143
       230240   0.000207141
       230245    0.00020714
       230250   0.000207139
       230255   0.000207138
       230260   0.000207136
       230265   0.000207135
       230270   0.000207134
       230275   0.000207133
       230280   0.000207131
       230285    0.00020713
       230290   0.000207129
       230295   0.000207128
       230300   0.000207126
       230305   0.000207125
       230310   0.000207124
       230315   0.000207123
       230320   0.000207121
       230325    0.00020712
       230330   0.000207119
       230335   0.000207118
       230340   0.000207116
       230345   0.000207115
       230350   0.000207114
       230355   0.000207112
       230360   0.000207111
       230365    0.00020711
       230370   0.000207109
       230375   0.000207107
       230380   0.000207106
       230385   0.000207105
       230390   0.000207104
       230395   0.000207102
       230400   0.000207101
       230405     0.0002071
       230410   0.000207099
       230415   0.000207097
       230420   0.000207096
       230425   0.000207095
       230430   0.000207094
       230435   0.000207092
       230440   0.000207091
       230445    0.00020709
       230450   0.000207089
       230455   0.000207087
       230460   0.000207086
       230465   0.000207085
       230470   0.000207084
       230475   0.000207082
       230480   0.000207081
       230485    0.00020708
       230490   0.000207079
       230495   0.000207077
       230500   0.000207076
       230505   0.000207075
       230510   0.000207074
       230515   0.000207072
       230520   0.000207071
       230525    0.00020707
       230530   0.000207068
       230535   0.000207067
       230540   0.000207066
       230545   0.000207065
       230550   0.000207063
       230555   0.000207062
       230560   0.000207061
       230565    0.00020706
       230570   0.000207058
       230575   0.000207057
       230580   0.000207056
       230585   0.000207055
       230590   0.000207053
       230595   0.000207052
       230600   0.000207051
       230605    0.00020705
       230610   0.000207048
       230615   0.000207047
       230620   0.000207046
       230625   0.000207045
       230630   0.000207043
       230635   0.000207042
       230640   0.000207041
       230645    0.00020704
       230650   0.000207038
       230655   0.000207037
       230660   0.000207036
       230665   0.000207035
       230670   0.000207033
       230675   0.000207032
       230680   0.000207031
       230685    0.00020703
       230690   0.000207028
       230695   0.000207027
       230700   0.000207026
       230705   0.000207025
       230710   0.000207023
       230715   0.000207022
       230720   0.000207021
       230725    0.00020702
       230730   0.000207018
       230735   0.000207017
       230740   0.000207016
       230745   0.000207015
       230750   0.000207013
       230755   0.000207012
       230760   0.000207011
       230765    0.00020701
       230770   0.000207009
       230775   0.000207007
       230780   0.000207006
       230785   0.000207005
       230790   0.000207004
       230795   0.000207002
       230800   0.000207001
       230805      0.000207
       230810   0.000206999
       230815   0.000206997
       230820   0.000206996
       230825   0.000206995
       230830   0.000206994
       230835   0.000206992
       230840   0.000206991
       230845    0.00020699
       230850   0.000206989
       230855   0.000206987
       230860   0.000206986
       230865   0.000206985
       230870   0.000206984
       230875   0.000206982
       230880   0.000206981
       230885    0.00020698
       230890   0.000206979
       230895   0.000206977
       230900   0.000206976
       230905   0.000206975
       230910   0.000206974
       230915   0.000206972
       230920   0.000206971
       230925    0.00020697
       230930   0.000206969
       230935   0.000206967
       230940   0.000206966
       230945   0.000206965
       230950   0.000206964
       230955   0.000206963
       230960   0.000206961
       230965    0.00020696
       230970   0.000206959
       230975   0.000206958
       230980   0.000206956
       230985   0.000206955
       230990   0.000206954
       230995   0.000206953
       231000   0.000206951
       231005    0.00020695
       231010   0.000206949
       231015   0.000206948
       231020   0.000206946
       231025   0.000206945
       231030   0.000206944
       231035   0.000206943
       231040   0.000206941
       231045    0.00020694
       231050   0.000206939
       231055   0.000206938
       231060   0.000206937
       231065   0.000206935
       231070   0.000206934
       231075   0.000206933
       231080   0.000206932
       231085    0.00020693
       231090   0.000206929
       231095   0.000206928
       231100   0.000206927
       231105   0.000206925
       231110   0.000206924
       231115   0.000206923
       231120   0.000206922
       231125    0.00020692
       231130   0.000206919
       231135   0.000206918
       231140   0.000206917
       231145   0.000206916
       231150   0.000206914
       231155   0.000206913
       231160   0.000206912
       231165   0.000206911
       231170   0.000206909
       231175   0.000206908
       231180   0.000206907
       231185   0.000206906
       231190   0.000206904
       231195   0.000206903
       231200   0.000206902
       231205   0.000206901
       231210   0.000206899
       231215   0.000206898
       231220   0.000206897
       231225   0.000206896
       231230   0.000206895
       231235   0.000206893
       231240   0.000206892
       231245   0.000206891
       231250    0.00020689
       231255   0.000206888
       231260   0.000206887
       231265   0.000206886
       231270   0.000206885
       231275   0.000206883
       231280   0.000206882
       231285   0.000206881
       231290    0.00020688
       231295   0.000206879
       231300   0.000206877
       231305   0.000206876
       231310   0.000206875
       231315   0.000206874
       231320   0.000206872
       231325   0.000206871
       231330    0.00020687
       231335   0.000206869
       231340   0.000206867
       231345   0.000206866
       231350   0.000206865
       231355   0.000206864
       231360   0.000206863
       231365   0.000206861
       231370    0.00020686
       231375   0.000206859
       231380   0.000206858
       231385   0.000206856
       231390   0.000206855
       231395   0.000206854
       231400   0.000206853
       231405   0.000206852
       231410    0.00020685
       231415   0.000206849
       231420   0.000206848
       231425   0.000206847
       231430   0.000206845
       231435   0.000206844
       231440   0.000206843
       231445   0.000206842
       231450   0.000206841
       231455   0.000206839
       231460   0.000206838
       231465   0.000206837
       231470   0.000206836
       231475   0.000206834
       231480   0.000206833
       231485   0.000206832
       231490   0.000206831
       231495   0.000206829
       231500   0.000206828
       231505   0.000206827
       231510   0.000206826
       231515   0.000206825
       231520   0.000206823
       231525   0.000206822
       231530   0.000206821
       231535    0.00020682
       231540   0.000206818
       231545   0.000206817
       231550   0.000206816
       231555   0.000206815
       231560   0.000206814
       231565   0.000206812
       231570   0.000206811
       231575    0.00020681
       231580   0.000206809
       231585   0.000206808
       231590   0.000206806
       231595   0.000206805
       231600   0.000206804
       231605   0.000206803
       231610   0.000206801
       231615     0.0002068
       231620   0.000206799
       231625   0.000206798
       231630   0.000206797
       231635   0.000206795
       231640   0.000206794
       231645   0.000206793
       231650   0.000206792
       231655    0.00020679
       231660   0.000206789
       231665   0.000206788
       231670   0.000206787
       231675   0.000206786
       231680   0.000206784
       231685   0.000206783
       231690   0.000206782
       231695   0.000206781
       231700   0.000206779
       231705   0.000206778
       231710   0.000206777
       231715   0.000206776
       231720   0.000206775
       231725   0.000206773
       231730   0.000206772
       231735   0.000206771
       231740    0.00020677
       231745   0.000206769
       231750   0.000206767
       231755   0.000206766
       231760   0.000206765
       231765   0.000206764
       231770   0.000206762
       231775   0.000206761
       231780    0.00020676
       231785   0.000206759
       231790   0.000206758
       231795   0.000206756
       231800   0.000206755
       231805   0.000206754
       231810   0.000206753
       231815   0.000206752
       231820    0.00020675
       231825   0.000206749
       231830   0.000206748
       231835   0.000206747
       231840   0.000206745
       231845   0.000206744
       231850   0.000206743
       231855   0.000206742
       231860   0.000206741
       231865   0.000206739
       231870   0.000206738
       231875   0.000206737
       231880   0.000206736
       231885   0.000206735
       231890   0.000206733
       231895   0.000206732
       231900   0.000206731
       231905    0.00020673
       231910   0.000206729
       231915   0.000206727
       231920   0.000206726
       231925   0.000206725
       231930   0.000206724
       231935   0.000206722
       231940   0.000206721
       231945    0.00020672
       231950   0.000206719
       231955   0.000206718
       231960   0.000206716
       231965   0.000206715
       231970   0.000206714
       231975   0.000206713
       231980   0.000206712
       231985    0.00020671
       231990   0.000206709
       231995   0.000206708
       232000   0.000206707
       232005   0.000206706
       232010   0.000206704
       232015   0.000206703
       232020   0.000206702
       232025   0.000206701
       232030     0.0002067
       232035   0.000206698
       232040   0.000206697
       232045   0.000206696
       232050   0.000206695
       232055   0.000206693
       232060   0.000206692
       232065   0.000206691
       232070    0.00020669
       232075   0.000206689
       232080   0.000206687
       232085   0.000206686
       232090   0.000206685
       232095   0.000206684
       232100   0.000206683
       232105   0.000206681
       232110    0.00020668
       232115   0.000206679
       232120   0.000206678
       232125   0.000206677
       232130   0.000206675
       232135   0.000206674
       232140   0.000206673
       232145   0.000206672
       232150   0.000206671
       232155   0.000206669
       232160   0.000206668
       232165   0.000206667
       232170   0.000206666
       232175   0.000206665
       232180   0.000206663
       232185   0.000206662
       232190   0.000206661
       232195    0.00020666
       232200   0.000206659
       232205   0.000206657
       232210   0.000206656
       232215   0.000206655
       232220   0.000206654
       232225   0.000206653
       232230   0.000206651
       232235    0.00020665
       232240   0.000206649
       232245   0.000206648
       232250   0.000206647
       232255   0.000206645
       232260   0.000206644
       232265   0.000206643
       232270   0.000206642
       232275   0.000206641
       232280   0.000206639
       232285   0.000206638
       232290   0.000206637
       232295   0.000206636
       232300   0.000206635
       232305   0.000206633
       232310   0.000206632
       232315   0.000206631
       232320    0.00020663
       232325   0.000206629
       232330   0.000206627
       232335   0.000206626
       232340   0.000206625
       232345   0.000206624
       232350   0.000206623
       232355   0.000206621
       232360    0.00020662
       232365   0.000206619
       232370   0.000206618
       232375   0.000206617
       232380   0.000206615
       232385   0.000206614
       232390   0.000206613
       232395   0.000206612
       232400   0.000206611
       232405   0.000206609
       232410   0.000206608
       232415   0.000206607
       232420   0.000206606
       232425   0.000206605
       232430   0.000206603
       232435   0.000206602
       232440   0.000206601
       232445     0.0002066
       232450   0.000206599
       232455   0.000206597
       232460   0.000206596
       232465   0.000206595
       232470   0.000206594
       232475   0.000206593
       232480   0.000206592
       232485    0.00020659
       232490   0.000206589
       232495   0.000206588
       232500   0.000206587
       232505   0.000206586
       232510   0.000206584
       232515   0.000206583
       232520   0.000206582
       232525   0.000206581
       232530    0.00020658
       232535   0.000206578
       232540   0.000206577
       232545   0.000206576
       232550   0.000206575
       232555   0.000206574
       232560   0.000206572
       232565   0.000206571
       232570    0.00020657
       232575   0.000206569
       232580   0.000206568
       232585   0.000206566
       232590   0.000206565
       232595   0.000206564
       232600   0.000206563
       232605   0.000206562
       232610   0.000206561
       232615   0.000206559
       232620   0.000206558
       232625   0.000206557
       232630   0.000206556
       232635   0.000206555
       232640   0.000206553
       232645   0.000206552
       232650   0.000206551
       232655    0.00020655
       232660   0.000206549
       232665   0.000206547
       232670   0.000206546
       232675   0.000206545
       232680   0.000206544
       232685   0.000206543
       232690   0.000206542
       232695    0.00020654
       232700   0.000206539
       232705   0.000206538
       232710   0.000206537
       232715   0.000206536
       232720   0.000206534
       232725   0.000206533
       232730   0.000206532
       232735   0.000206531
       232740    0.00020653
       232745   0.000206528
       232750   0.000206527
       232755   0.000206526
       232760   0.000206525
       232765   0.000206524
       232770   0.000206523
       232775   0.000206521
       232780    0.00020652
       232785   0.000206519
       232790   0.000206518
       232795   0.000206517
       232800   0.000206515
       232805   0.000206514
       232810   0.000206513
       232815   0.000206512
       232820   0.000206511
       232825    0.00020651
       232830   0.000206508
       232835   0.000206507
       232840   0.000206506
       232845   0.000206505
       232850   0.000206504
       232855   0.000206502
       232860   0.000206501
       232865     0.0002065
       232870   0.000206499
       232875   0.000206498
       232880   0.000206497
       232885   0.000206495
       232890   0.000206494
       232895   0.000206493
       232900   0.000206492
       232905   0.000206491
       232910   0.000206489
       232915   0.000206488
       232920   0.000206487
       232925   0.000206486
       232930   0.000206485
       232935   0.000206484
       232940   0.000206482
       232945   0.000206481
       232950    0.00020648
       232955   0.000206479
       232960   0.000206478
       232965   0.000206476
       232970   0.000206475
       232975   0.000206474
       232980   0.000206473
       232985   0.000206472
       232990   0.000206471
       232995   0.000206469
       233000   0.000206468
       233005   0.000206467
       233010   0.000206466
       233015   0.000206465
       233020   0.000206464
       233025   0.000206462
       233030   0.000206461
       233035    0.00020646
       233040   0.000206459
       233045   0.000206458
       233050   0.000206456
       233055   0.000206455
       233060   0.000206454
       233065   0.000206453
       233070   0.000206452
       233075   0.000206451
       233080   0.000206449
       233085   0.000206448
       233090   0.000206447
       233095   0.000206446
       233100   0.000206445
       233105   0.000206444
       233110   0.000206442
       233115   0.000206441
       233120    0.00020644
       233125   0.000206439
       233130   0.000206438
       233135   0.000206437
       233140   0.000206435
       233145   0.000206434
       233150   0.000206433
       233155   0.000206432
       233160   0.000206431
       233165   0.000206429
       233170   0.000206428
       233175   0.000206427
       233180   0.000206426
       233185   0.000206425
       233190   0.000206424
       233195   0.000206422
       233200   0.000206421
       233205    0.00020642
       233210   0.000206419
       233215   0.000206418
       233220   0.000206417
       233225   0.000206415
       233230   0.000206414
       233235   0.000206413
       233240   0.000206412
       233245   0.000206411
       233250    0.00020641
       233255   0.000206408
       233260   0.000206407
       233265   0.000206406
       233270   0.000206405
       233275   0.000206404
       233280   0.000206403
       233285   0.000206401
       233290     0.0002064
       233295   0.000206399
       233300   0.000206398
       233305   0.000206397
       233310   0.000206396
       233315   0.000206394
       233320   0.000206393
       233325   0.000206392
       233330   0.000206391
       233335    0.00020639
       233340   0.000206389
       233345   0.000206387
       233350   0.000206386
       233355   0.000206385
       233360   0.000206384
       233365   0.000206383
       233370   0.000206382
       233375    0.00020638
       233380   0.000206379
       233385   0.000206378
       233390   0.000206377
       233395   0.000206376
       233400   0.000206375
       233405   0.000206373
       233410   0.000206372
       233415   0.000206371
       233420    0.00020637
       233425   0.000206369
       233430   0.000206368
       233435   0.000206366
       233440   0.000206365
       233445   0.000206364
       233450   0.000206363
       233455   0.000206362
       233460   0.000206361
       233465   0.000206359
       233470   0.000206358
       233475   0.000206357
       233480   0.000206356
       233485   0.000206355
       233490   0.000206354
       233495   0.000206352
       233500   0.000206351
       233505    0.00020635
       233510   0.000206349
       233515   0.000206348
       233520   0.000206347
       233525   0.000206345
       233530   0.000206344
       233535   0.000206343
       233540   0.000206342
       233545   0.000206341
       233550    0.00020634
       233555   0.000206338
       233560   0.000206337
       233565   0.000206336
       233570   0.000206335
       233575   0.000206334
       233580   0.000206333
       233585   0.000206331
       233590    0.00020633
       233595   0.000206329
       233600   0.000206328
       233605   0.000206327
       233610   0.000206326
       233615   0.000206325
       233620   0.000206323
       233625   0.000206322
       233630   0.000206321
       233635    0.00020632
       233640   0.000206319
       233645   0.000206318
       233650   0.000206316
       233655   0.000206315
       233660   0.000206314
       233665   0.000206313
       233670   0.000206312
       233675   0.000206311
       233680   0.000206309
       233685   0.000206308
       233690   0.000206307
       233695   0.000206306
       233700   0.000206305
       233705   0.000206304
       233710   0.000206303
       233715   0.000206301
       233720     0.0002063
       233725   0.000206299
       233730   0.000206298
       233735   0.000206297
       233740   0.000206296
       233745   0.000206294
       233750   0.000206293
       233755   0.000206292
       233760   0.000206291
       233765    0.00020629
       233770   0.000206289
       233775   0.000206288
       233780   0.000206286
       233785   0.000206285
       233790   0.000206284
       233795   0.000206283
       233800   0.000206282
       233805   0.000206281
       233810   0.000206279
       233815   0.000206278
       233820   0.000206277
       233825   0.000206276
       233830   0.000206275
       233835   0.000206274
       233840   0.000206272
       233845   0.000206271
       233850    0.00020627
       233855   0.000206269
       233860   0.000206268
       233865   0.000206267
       233870   0.000206266
       233875   0.000206264
       233880   0.000206263
       233885   0.000206262
       233890   0.000206261
       233895    0.00020626
       233900   0.000206259
       233905   0.000206258
       233910   0.000206256
       233915   0.000206255
       233920   0.000206254
       233925   0.000206253
       233930   0.000206252
       233935   0.000206251
       233940   0.000206249
       233945   0.000206248
       233950   0.000206247
       233955   0.000206246
       233960   0.000206245
       233965   0.000206244
       233970   0.000206243
       233975   0.000206241
       233980    0.00020624
       233985   0.000206239
       233990   0.000206238
       233995   0.000206237
       234000   0.000206236
       234005   0.000206235
       234010   0.000206233
       234015   0.000206232
       234020   0.000206231
       234025    0.00020623
       234030   0.000206229
       234035   0.000206228
       234040   0.000206226
       234045   0.000206225
       234050   0.000206224
       234055   0.000206223
       234060   0.000206222
       234065   0.000206221
       234070    0.00020622
       234075   0.000206218
       234080   0.000206217
       234085   0.000206216
       234090   0.000206215
       234095   0.000206214
       234100   0.000206213
       234105   0.000206212
       234110    0.00020621
       234115   0.000206209
       234120   0.000206208
       234125   0.000206207
       234130   0.000206206
       234135   0.000206205
       234140   0.000206204
       234145   0.000206202
       234150   0.000206201
       234155     0.0002062
       234160   0.000206199
       234165   0.000206198
       234170   0.000206197
       234175   0.000206196
       234180   0.000206194
       234185   0.000206193
       234190   0.000206192
       234195   0.000206191
       234200    0.00020619
       234205   0.000206189
       234210   0.000206188
       234215   0.000206186
       234220   0.000206185
       234225   0.000206184
       234230   0.000206183
       234235   0.000206182
       234240   0.000206181
       234245    0.00020618
       234250   0.000206178
       234255   0.000206177
       234260   0.000206176
       234265   0.000206175
       234270   0.000206174
       234275   0.000206173
       234280   0.000206172
       234285    0.00020617
       234290   0.000206169
       234295   0.000206168
       234300   0.000206167
       234305   0.000206166
       234310   0.000206165
       234315   0.000206164
       234320   0.000206162
       234325   0.000206161
       234330    0.00020616
       234335   0.000206159
       234340   0.000206158
       234345   0.000206157
       234350   0.000206156
       234355   0.000206155
       234360   0.000206153
       234365   0.000206152
       234370   0.000206151
       234375    0.00020615
       234380   0.000206149
       234385   0.000206148
       234390   0.000206147
       234395   0.000206145
       234400   0.000206144
       234405   0.000206143
       234410   0.000206142
       234415   0.000206141
       234420    0.00020614
       234425   0.000206139
       234430   0.000206137
       234435   0.000206136
       234440   0.000206135
       234445   0.000206134
       234450   0.000206133
       234455   0.000206132
       234460   0.000206131
       234465    0.00020613
       234470   0.000206128
       234475   0.000206127
       234480   0.000206126
       234485   0.000206125
       234490   0.000206124
       234495   0.000206123
       234500   0.000206122
       234505    0.00020612
       234510   0.000206119
       234515   0.000206118
       234520   0.000206117
       234525   0.000206116
       234530   0.000206115
       234535   0.000206114
       234540   0.000206112
       234545   0.000206111
       234550    0.00020611
       234555   0.000206109
       234560   0.000206108
       234565   0.000206107
       234570   0.000206106
       234575   0.000206105
       234580   0.000206103
       234585   0.000206102
       234590   0.000206101
       234595     0.0002061
       234600   0.000206099
       234605   0.000206098
       234610   0.000206097
       234615   0.000206096
       234620   0.000206094
       234625   0.000206093
       234630   0.000206092
       234635   0.000206091
       234640    0.00020609
       234645   0.000206089
       234650   0.000206088
       234655   0.000206086
       234660   0.000206085
       234665   0.000206084
       234670   0.000206083
       234675   0.000206082
       234680   0.000206081
       234685    0.00020608
       234690   0.000206079
       234695   0.000206077
       234700   0.000206076
       234705   0.000206075
       234710   0.000206074
       234715   0.000206073
       234720   0.000206072
       234725   0.000206071
       234730    0.00020607
       234735   0.000206068
       234740   0.000206067
       234745   0.000206066
       234750   0.000206065
       234755   0.000206064
       234760   0.000206063
       234765   0.000206062
       234770   0.000206061
       234775   0.000206059
       234780   0.000206058
       234785   0.000206057
       234790   0.000206056
       234795   0.000206055
       234800   0.000206054
       234805   0.000206053
       234810   0.000206052
       234815    0.00020605
       234820   0.000206049
       234825   0.000206048
       234830   0.000206047
       234835   0.000206046
       234840   0.000206045
       234845   0.000206044
       234850   0.000206043
       234855   0.000206041
       234860    0.00020604
       234865   0.000206039
       234870   0.000206038
       234875   0.000206037
       234880   0.000206036
       234885   0.000206035
       234890   0.000206034
       234895   0.000206032
       234900   0.000206031
       234905    0.00020603
       234910   0.000206029
       234915   0.000206028
       234920   0.000206027
       234925   0.000206026
       234930   0.000206025
       234935   0.000206023
       234940   0.000206022
       234945   0.000206021
       234950    0.00020602
       234955   0.000206019
       234960   0.000206018
       234965   0.000206017
       234970   0.000206016
       234975   0.000206014
       234980   0.000206013
       234985   0.000206012
       234990   0.000206011
       234995    0.00020601
       235000   0.000206009
       235005   0.000206008
       235010   0.000206007
       235015   0.000206005
       235020   0.000206004
       235025   0.000206003
       235030   0.000206002
       235035   0.000206001
       235040      0.000206
       235045   0.000205999
       235050   0.000205998
       235055   0.000205997
       235060   0.000205995
       235065   0.000205994
       235070   0.000205993
       235075   0.000205992
       235080   0.000205991
       235085    0.00020599
       235090   0.000205989
       235095   0.000205988
       235100   0.000205986
       235105   0.000205985
       235110   0.000205984
       235115   0.000205983
       235120   0.000205982
       235125   0.000205981
       235130    0.00020598
       235135   0.000205979
       235140   0.000205978
       235145   0.000205976
       235150   0.000205975
       235155   0.000205974
       235160   0.000205973
       235165   0.000205972
       235170   0.000205971
       235175    0.00020597
       235180   0.000205969
       235185   0.000205968
       235190   0.000205966
       235195   0.000205965
       235200   0.000205964
       235205   0.000205963
       235210   0.000205962
       235215   0.000205961
       235220    0.00020596
       235225   0.000205959
       235230   0.000205957
       235235   0.000205956
       235240   0.000205955
       235245   0.000205954
       235250   0.000205953
       235255   0.000205952
       235260   0.000205951
       235265    0.00020595
       235270   0.000205949
       235275   0.000205947
       235280   0.000205946
       235285   0.000205945
       235290   0.000205944
       235295   0.000205943
       235300   0.000205942
       235305   0.000205941
       235310    0.00020594
       235315   0.000205939
       235320   0.000205937
       235325   0.000205936
       235330   0.000205935
       235335   0.000205934
       235340   0.000205933