# Probe 0 (0.05 0.05 0.005)
#       Probe             0
#        Time
       230005   8.31739e-07
       230010   8.31735e-07
       230015   8.31731e-07
       230020   8.31727e-07
       230025   8.31723e-07
       230030   8.31719e-07
       230035   8.31715e-07
       230040   8.31711e-07
       230045   8.31707e-07
       230050   8.31704e-07
       230055     8.317e-07
       230060   8.31696e-07
       230065   8.31692e-07
       230070   8.31688e-07
       230075   8.31684e-07
       230080    8.3168e-07
       230085   8.31676e-07
       230090   8.31672e-07
       230095   8.31668e-07
       230100   8.31664e-07
       230105    8.3166e-07
       230110   8.31657e-07
       230115   8.31653e-07
       230120   8.31649e-07
       230125   8.31645e-07
       230130   8.31641e-07
       230135   8.31637e-07
       230140   8.31633e-07
       230145   8.31629e-07
       230150   8.31625e-07
       230155   8.31621e-07
       230160   8.31617e-07
       230165   8.31613e-07
       230170    8.3161e-07
       230175   8.31606e-07
       230180   8.31602e-07
       230185   8.31598e-07
       230190   8.31594e-07
       230195    8.3159e-07
       230200   8.31586e-07
       230205   8.31582e-07
       230210   8.31578e-07
       230215   8.31574e-07
       230220   8.31571e-07
       230225   8.31567e-07
       230230   8.31563e-07
       230235   8.31559e-07
       230240   8.31555e-07
       230245   8.31551e-07
       230250   8.31547e-07
       230255   8.31543e-07
       230260   8.31539e-07
       230265   8.31535e-07
       230270   8.31531e-07
       230275   8.31528e-07
       230280   8.31524e-07
       230285    8.3152e-07
       230290   8.31516e-07
       230295   8.31512e-07
       230300   8.31508e-07
       230305   8.31504e-07
       230310     8.315e-07
       230315   8.31496e-07
       230320   8.31493e-07
       230325   8.31489e-07
       230330   8.31485e-07
       230335   8.31481e-07
       230340   8.31477e-07
       230345   8.31473e-07
       230350   8.31469e-07
       230355   8.31465e-07
       230360   8.31461e-07
       230365   8.31457e-07
       230370   8.31454e-07
       230375    8.3145e-07
       230380   8.31446e-07
       230385   8.31442e-07
       230390   8.31438e-07
       230395   8.31434e-07
       230400    8.3143e-07
       230405   8.31426e-07
       230410   8.31422e-07
       230415   8.31419e-07
       230420   8.31415e-07
       230425   8.31411e-07
       230430   8.31407e-07
       230435   8.31403e-07
       230440   8.31399e-07
       230445   8.31395e-07
       230450   8.31391e-07
       230455   8.31388e-07
       230460   8.31384e-07
       230465    8.3138e-07
       230470   8.31376e-07
       230475   8.31372e-07
       230480   8.31368e-07
       230485   8.31364e-07
       230490    8.3136e-07
       230495   8.31356e-07
       230500   8.31353e-07
       230505   8.31349e-07
       230510   8.31345e-07
       230515   8.31341e-07
       230520   8.31337e-07
       230525   8.31333e-07
       230530   8.31329e-07
       230535   8.31325e-07
       230540   8.31322e-07
       230545   8.31318e-07
       230550   8.31314e-07
       230555    8.3131e-07
       230560   8.31306e-07
       230565   8.31302e-07
       230570   8.31298e-07
       230575   8.31294e-07
       230580   8.31291e-07
       230585   8.31287e-07
       230590   8.31283e-07
       230595   8.31279e-07
       230600   8.31275e-07
       230605   8.31271e-07
       230610   8.31267e-07
       230615   8.31264e-07
       230620    8.3126e-07
       230625   8.31256e-07
       230630   8.31252e-07
       230635   8.31248e-07
       230640   8.31244e-07
       230645    8.3124e-07
       230650   8.31236e-07
       230655   8.31233e-07
       230660   8.31229e-07
       230665   8.31225e-07
       230670   8.31221e-07
       230675   8.31217e-07
       230680   8.31213e-07
       230685   8.31209e-07
       230690   8.31206e-07
       230695   8.31202e-07
       230700   8.31198e-07
       230705   8.31194e-07
       230710    8.3119e-07
       230715   8.31186e-07
       230720   8.31182e-07
       230725   8.31179e-07
       230730   8.31175e-07
       230735   8.31171e-07
       230740   8.31167e-07
       230745   8.31163e-07
       230750   8.31159e-07
       230755   8.31155e-07
       230760   8.31152e-07
       230765   8.31148e-07
       230770   8.31144e-07
       230775    8.3114e-07
       230780   8.31136e-07
       230785   8.31132e-07
       230790   8.31128e-07
       230795   8.31125e-07
       230800   8.31121e-07
       230805   8.31117e-07
       230810   8.31113e-07
       230815   8.31109e-07
       230820   8.31105e-07
       230825   8.31102e-07
       230830   8.31098e-07
       230835   8.31094e-07
       230840    8.3109e-07
       230845   8.31086e-07
       230850   8.31082e-07
       230855   8.31078e-07
       230860   8.31075e-07
       230865   8.31071e-07
       230870   8.31067e-07
       230875   8.31063e-07
       230880   8.31059e-07
       230885   8.31055e-07
       230890   8.31052e-07
       230895   8.31048e-07
       230900   8.31044e-07
       230905    8.3104e-07
       230910   8.31036e-07
       230915   8.31032e-07
       230920   8.31029e-07
       230925   8.31025e-07
       230930   8.31021e-07
       230935   8.31017e-07
       230940   8.31013e-07
       230945   8.31009e-07
       230950   8.31006e-07
       230955   8.31002e-07
       230960   8.30998e-07
       230965   8.30994e-07
       230970    8.3099e-07
       230975   8.30986e-07
       230980   8.30983e-07
       230985   8.30979e-07
       230990   8.30975e-07
       230995   8.30971e-07
       231000   8.30967e-07
       231005   8.30963e-07
       231010    8.3096e-07
       231015   8.30956e-07
       231020   8.30952e-07
       231025   8.30948e-07
       231030   8.30944e-07
       231035    8.3094e-07
       231040   8.30937e-07
       231045   8.30933e-07
       231050   8.30929e-07
       231055   8.30925e-07
       231060   8.30921e-07
       231065   8.30917e-07
       231070   8.30914e-07
       231075    8.3091e-07
       231080   8.30906e-07
       231085   8.30902e-07
       231090   8.30898e-07
       231095   8.30895e-07
       231100   8.30891e-07
       231105   8.30887e-07
       231110   8.30883e-07
       231115   8.30879e-07
       231120   8.30875e-07
       231125   8.30872e-07
       231130   8.30868e-07
       231135   8.30864e-07
       231140    8.3086e-07
       231145   8.30856e-07
       231150   8.30853e-07
       231155   8.30849e-07
       231160   8.30845e-07
       231165   8.30841e-07
       231170   8.30837e-07
       231175   8.30833e-07
       231180    8.3083e-07
       231185   8.30826e-07
       231190   8.30822e-07
       231195   8.30818e-07
       231200   8.30814e-07
       231205   8.30811e-07
       231210   8.30807e-07
       231215   8.30803e-07
       231220   8.30799e-07
       231225   8.30795e-07
       231230   8.30792e-07
       231235   8.30788e-07
       231240   8.30784e-07
       231245    8.3078e-07
       231250   8.30776e-07
       231255   8.30773e-07
       231260   8.30769e-07
       231265   8.30765e-07
       231270   8.30761e-07
       231275   8.30757e-07
       231280   8.30754e-07
       231285    8.3075e-07
       231290   8.30746e-07
       231295   8.30742e-07
       231300   8.30738e-07
       231305   8.30735e-07
       231310   8.30731e-07
       231315   8.30727e-07
       231320   8.30723e-07
       231325   8.30719e-07
       231330   8.30716e-07
       231335   8.30712e-07
       231340   8.30708e-07
       231345   8.30704e-07
       231350     8.307e-07
       231355   8.30697e-07
       231360   8.30693e-07
       231365   8.30689e-07
       231370   8.30685e-07
       231375   8.30681e-07
       231380   8.30678e-07
       231385   8.30674e-07
       231390    8.3067e-07
       231395   8.30666e-07
       231400   8.30662e-07
       231405   8.30659e-07
       231410   8.30655e-07
       231415   8.30651e-07
       231420   8.30647e-07
       231425   8.30643e-07
       231430    8.3064e-07
       231435   8.30636e-07
       231440   8.30632e-07
       231445   8.30628e-07
       231450   8.30625e-07
       231455   8.30621e-07
       231460   8.30617e-07
       231465   8.30613e-07
       231470   8.30609e-07
       231475   8.30606e-07
       231480   8.30602e-07
       231485   8.30598e-07
       231490   8.30594e-07
       231495    8.3059e-07
       231500   8.30587e-07
       231505   8.30583e-07
       231510   8.30579e-07
       231515   8.30575e-07
       231520   8.30572e-07
       231525   8.30568e-07
       231530   8.30564e-07
       231535    8.3056e-07
       231540   8.30556e-07
       231545   8.30553e-07
       231550   8.30549e-07
       231555   8.30545e-07
       231560   8.30541e-07
       231565   8.30538e-07
       231570   8.30534e-07
       231575    8.3053e-07
       231580   8.30526e-07
       231585   8.30522e-07
       231590   8.30519e-07
       231595   8.30515e-07
       231600   8.30511e-07
       231605   8.30507e-07
       231610   8.30504e-07
       231615     8.305e-07
       231620   8.30496e-07
       231625   8.30492e-07
       231630   8.30489e-07
       231635   8.30485e-07
       231640   8.30481e-07
       231645   8.30477e-07
       231650   8.30473e-07
       231655    8.3047e-07
       231660   8.30466e-07
       231665   8.30462e-07
       231670   8.30458e-07
       231675   8.30455e-07
       231680   8.30451e-07
       231685   8.30447e-07
       231690   8.30443e-07
       231695    8.3044e-07
       231700   8.30436e-07
       231705   8.30432e-07
       231710   8.30428e-07
       231715   8.30424e-07
       231720   8.30421e-07
       231725   8.30417e-07
       231730   8.30413e-07
       231735   8.30409e-07
       231740   8.30406e-07
       231745   8.30402e-07
       231750   8.30398e-07
       231755   8.30394e-07
       231760   8.30391e-07
       231765   8.30387e-07
       231770   8.30383e-07
       231775   8.30379e-07
       231780   8.30376e-07
       231785   8.30372e-07
       231790   8.30368e-07
       231795   8.30364e-07
       231800   8.30361e-07
       231805   8.30357e-07
       231810   8.30353e-07
       231815   8.30349e-07
       231820   8.30346e-07
       231825   8.30342e-07
       231830   8.30338e-07
       231835   8.30334e-07
       231840   8.30331e-07
       231845   8.30327e-07
       231850   8.30323e-07
       231855   8.30319e-07
       231860   8.30316e-07
       231865   8.30312e-07
       231870   8.30308e-07
       231875   8.30304e-07
       231880   8.30301e-07
       231885   8.30297e-07
       231890   8.30293e-07
       231895   8.30289e-07
       231900   8.30286e-07
       231905   8.30282e-07
       231910   8.30278e-07
       231915   8.30274e-07
       231920   8.30271e-07
       231925   8.30267e-07
       231930   8.30263e-07
       231935   8.30259e-07
       231940   8.30256e-07
       231945   8.30252e-07
       231950   8.30248e-07
       231955   8.30244e-07
       231960   8.30241e-07
       231965   8.30237e-07
       231970   8.30233e-07
       231975    8.3023e-07
       231980   8.30226e-07
       231985   8.30222e-07
       231990   8.30218e-07
       231995   8.30215e-07
       232000   8.30211e-07
       232005   8.30207e-07
       232010   8.30203e-07
       232015     8.302e-07
       232020   8.30196e-07
       232025   8.30192e-07
       232030   8.30188e-07
       232035   8.30185e-07
       232040   8.30181e-07
       232045   8.30177e-07
       232050   8.30174e-07
       232055    8.3017e-07
       232060   8.30166e-07
       232065   8.30162e-07
       232070   8.30159e-07
       232075   8.30155e-07
       232080   8.30151e-07
       232085   8.30147e-07
       232090   8.30144e-07
       232095    8.3014e-07
       232100   8.30136e-07
       232105   8.30133e-07
       232110   8.30129e-07
       232115   8.30125e-07
       232120   8.30121e-07
       232125   8.30118e-07
       232130   8.30114e-07
       232135    8.3011e-07
       232140   8.30106e-07
       232145   8.30103e-07
       232150   8.30099e-07
       232155   8.30095e-07
       232160   8.30092e-07
       232165   8.30088e-07
       232170   8.30084e-07
       232175    8.3008e-07
       232180   8.30077e-07
       232185   8.30073e-07
       232190   8.30069e-07
       232195   8.30066e-07
       232200   8.30062e-07
       232205   8.30058e-07
       232210   8.30054e-07
       232215   8.30051e-07
       232220   8.30047e-07
       232225   8.30043e-07
       232230    8.3004e-07
       232235   8.30036e-07
       232240   8.30032e-07
       232245   8.30028e-07
       232250   8.30025e-07
       232255   8.30021e-07
       232260   8.30017e-07
       232265   8.30014e-07
       232270    8.3001e-07
       232275   8.30006e-07
       232280   8.30002e-07
       232285   8.29999e-07
       232290   8.29995e-07
       232295   8.29991e-07
       232300   8.29988e-07
       232305   8.29984e-07
       232310    8.2998e-07
       232315   8.29976e-07
       232320   8.29973e-07
       232325   8.29969e-07
       232330   8.29965e-07
       232335   8.29962e-07
       232340   8.29958e-07
       232345   8.29954e-07
       232350   8.29951e-07
       232355   8.29947e-07
       232360   8.29943e-07
       232365   8.29939e-07
       232370   8.29936e-07
       232375   8.29932e-07
       232380   8.29928e-07
       232385   8.29925e-07
       232390   8.29921e-07
       232395   8.29917e-07
       232400   8.29914e-07
       232405    8.2991e-07
       232410   8.29906e-07
       232415   8.29902e-07
       232420   8.29899e-07
       232425   8.29895e-07
       232430   8.29891e-07
       232435   8.29888e-07
       232440   8.29884e-07
       232445    8.2988e-07
       232450   8.29877e-07
       232455   8.29873e-07
       232460   8.29869e-07
       232465   8.29865e-07
       232470   8.29862e-07
       232475   8.29858e-07
       232480   8.29854e-07
       232485   8.29851e-07
       232490   8.29847e-07
       232495   8.29843e-07
       232500    8.2984e-07
       232505   8.29836e-07
       232510   8.29832e-07
       232515   8.29829e-07
       232520   8.29825e-07
       232525   8.29821e-07
       232530   8.29818e-07
       232535   8.29814e-07
       232540    8.2981e-07
       232545   8.29806e-07
       232550   8.29803e-07
       232555   8.29799e-07
       232560   8.29795e-07
       232565   8.29792e-07
       232570   8.29788e-07
       232575   8.29784e-07
       232580   8.29781e-07
       232585   8.29777e-07
       232590   8.29773e-07
       232595    8.2977e-07
       232600   8.29766e-07
       232605   8.29762e-07
       232610   8.29759e-07
       232615   8.29755e-07
       232620   8.29751e-07
       232625   8.29748e-07
       232630   8.29744e-07
       232635    8.2974e-07
       232640   8.29737e-07
       232645   8.29733e-07
       232650   8.29729e-07
       232655   8.29726e-07
       232660   8.29722e-07
       232665   8.29718e-07
       232670   8.29714e-07
       232675   8.29711e-07
       232680   8.29707e-07
       232685   8.29703e-07
       232690     8.297e-07
       232695   8.29696e-07
       232700   8.29692e-07
       232705   8.29689e-07
       232710   8.29685e-07
       232715   8.29681e-07
       232720   8.29678e-07
       232725   8.29674e-07
       232730    8.2967e-07
       232735   8.29667e-07
       232740   8.29663e-07
       232745   8.29659e-07
       232750   8.29656e-07
       232755   8.29652e-07
       232760   8.29648e-07
       232765   8.29645e-07
       232770   8.29641e-07
       232775   8.29637e-07
       232780   8.29634e-07
       232785    8.2963e-07
       232790   8.29626e-07
       232795   8.29623e-07
       232800   8.29619e-07
       232805   8.29615e-07
       232810   8.29612e-07
       232815   8.29608e-07
       232820   8.29605e-07
       232825   8.29601e-07
       232830   8.29597e-07
       232835   8.29594e-07
       232840    8.2959e-07
       232845   8.29586e-07
       232850   8.29583e-07
       232855   8.29579e-07
       232860   8.29575e-07
       232865   8.29572e-07
       232870   8.29568e-07
       232875   8.29564e-07
       232880   8.29561e-07
       232885   8.29557e-07
       232890   8.29553e-07
       232895    8.2955e-07
       232900   8.29546e-07
       232905   8.29542e-07
       232910   8.29539e-07
       232915   8.29535e-07
       232920   8.29531e-07
       232925   8.29528e-07
       232930   8.29524e-07
       232935    8.2952e-07
       232940   8.29517e-07
       232945   8.29513e-07
       232950    8.2951e-07
       232955   8.29506e-07
       232960   8.29502e-07
       232965   8.29499e-07
       232970   8.29495e-07
       232975   8.29491e-07
       232980   8.29488e-07
       232985   8.29484e-07
       232990    8.2948e-07
       232995   8.29477e-07
       233000   8.29473e-07
       233005   8.29469e-07
       233010   8.29466e-07
       233015   8.29462e-07
       233020   8.29458e-07
       233025   8.29455e-07
       233030   8.29451e-07
       233035   8.29448e-07
       233040   8.29444e-07
       233045    8.2944e-07
       233050   8.29437e-07
       233055   8.29433e-07
       233060   8.29429e-07
       233065   8.29426e-07
       233070   8.29422e-07
       233075   8.29418e-07
       233080   8.29415e-07
       233085   8.29411e-07
       233090   8.29408e-07
       233095   8.29404e-07
       233100     8.294e-07
       233105   8.29397e-07
       233110   8.29393e-07
       233115   8.29389e-07
       233120   8.29386e-07
       233125   8.29382e-07
       233130   8.29378e-07
       233135   8.29375e-07
       233140   8.29371e-07
       233145   8.29368e-07
       233150   8.29364e-07
       233155    8.2936e-07
       233160   8.29357e-07
       233165   8.29353e-07
       233170   8.29349e-07
       233175   8.29346e-07
       233180   8.29342e-07
       233185   8.29339e-07
       233190   8.29335e-07
       233195   8.29331e-07
       233200   8.29328e-07
       233205   8.29324e-07
       233210    8.2932e-07
       233215   8.29317e-07
       233220   8.29313e-07
       233225    8.2931e-07
       233230   8.29306e-07
       233235   8.29302e-07
       233240   8.29299e-07
       233245   8.29295e-07
       233250   8.29291e-07
       233255   8.29288e-07
       233260   8.29284e-07
       233265   8.29281e-07
       233270   8.29277e-07
       233275   8.29273e-07
       233280    8.2927e-07
       233285   8.29266e-07
       233290   8.29262e-07
       233295   8.29259e-07
       233300   8.29255e-07
       233305   8.29252e-07
       233310   8.29248e-07
       233315   8.29244e-07
       233320   8.29241e-07
       233325   8.29237e-07
       233330   8.29234e-07
       233335    8.2923e-07
       233340   8.29226e-07
       233345   8.29223e-07
       233350   8.29219e-07
       233355   8.29215e-07
       233360   8.29212e-07
       233365   8.29208e-07
       233370   8.29205e-07
       233375   8.29201e-07
       233380   8.29197e-07
       233385   8.29194e-07
       233390    8.2919e-07
       233395   8.29187e-07
       233400   8.29183e-07
       233405   8.29179e-07
       233410   8.29176e-07
       233415   8.29172e-07
       233420   8.29169e-07
       233425   8.29165e-07
       233430   8.29161e-07
       233435   8.29158e-07
       233440   8.29154e-07
       233445   8.29151e-07
       233450   8.29147e-07
       233455   8.29143e-07
       233460    8.2914e-07
       233465   8.29136e-07
       233470   8.29133e-07
       233475   8.29129e-07
       233480   8.29125e-07
       233485   8.29122e-07
       233490   8.29118e-07
       233495   8.29115e-07
       233500   8.29111e-07
       233505   8.29107e-07
       233510   8.29104e-07
       233515     8.291e-07
       233520   8.29097e-07
       233525   8.29093e-07
       233530   8.29089e-07
       233535   8.29086e-07
       233540   8.29082e-07
       233545   8.29079e-07
       233550   8.29075e-07
       233555   8.29071e-07
       233560   8.29068e-07
       233565   8.29064e-07
       233570   8.29061e-07
       233575   8.29057e-07
       233580   8.29053e-07
       233585    8.2905e-07
       233590   8.29046e-07
       233595   8.29043e-07
       233600   8.29039e-07
       233605   8.29035e-07
       233610   8.29032e-07
       233615   8.29028e-07
       233620   8.29025e-07
       233625   8.29021e-07
       233630   8.29018e-07
       233635   8.29014e-07
       233640    8.2901e-07
       233645   8.29007e-07
       233650   8.29003e-07
       233655      8.29e-07
       233660   8.28996e-07
       233665   8.28992e-07
       233670   8.28989e-07
       233675   8.28985e-07
       233680   8.28982e-07
       233685   8.28978e-07
       233690   8.28975e-07
       233695   8.28971e-07
       233700   8.28967e-07
       233705   8.28964e-07
       233710    8.2896e-07
       233715   8.28957e-07
       233720   8.28953e-07
       233725   8.28949e-07
       233730   8.28946e-07
       233735   8.28942e-07
       233740   8.28939e-07
       233745   8.28935e-07
       233750   8.28932e-07
       233755   8.28928e-07
       233760   8.28924e-07
       233765   8.28921e-07
       233770   8.28917e-07
       233775   8.28914e-07
       233780    8.2891e-07
       233785   8.28907e-07
       233790   8.28903e-07
       233795   8.28899e-07
       233800   8.28896e-07
       233805   8.28892e-07
       233810   8.28889e-07
       233815   8.28885e-07
       233820   8.28882e-07
       233825   8.28878e-07
       233830   8.28874e-07
       233835   8.28871e-07
       233840   8.28867e-07
       233845   8.28864e-07
       233850    8.2886e-07
       233855   8.28857e-07
       233860   8.28853e-07
       233865   8.28849e-07
       233870   8.28846e-07
       233875   8.28842e-07
       233880   8.28839e-07
       233885   8.28835e-07
       233890   8.28832e-07
       233895   8.28828e-07
       233900   8.28824e-07
       233905   8.28821e-07
       233910   8.28817e-07
       233915   8.28814e-07
       233920    8.2881e-07
       233925   8.28807e-07
       233930   8.28803e-07
       233935     8.288e-07
       233940   8.28796e-07
       233945   8.28792e-07
       233950   8.28789e-07
       233955   8.28785e-07
       233960   8.28782e-07
       233965   8.28778e-07
       233970   8.28775e-07
       233975   8.28771e-07
       233980   8.28768e-07
       233985   8.28764e-07
       233990    8.2876e-07
       233995   8.28757e-07
       234000   8.28753e-07
       234005    8.2875e-07
       234010   8.28746e-07
       234015   8.28743e-07
       234020   8.28739e-07
       234025   8.28736e-07
       234030   8.28732e-07
       234035   8.28728e-07
       234040   8.28725e-07
       234045   8.28721e-07
       234050   8.28718e-07
       234055   8.28714e-07
       234060   8.28711e-07
       234065   8.28707e-07
       234070   8.28704e-07
       234075     8.287e-07
       234080   8.28696e-07
       234085   8.28693e-07
       234090   8.28689e-07
       234095   8.28686e-07
       234100   8.28682e-07
       234105   8.28679e-07
       234110   8.28675e-07
       234115   8.28672e-07
       234120   8.28668e-07
       234125   8.28665e-07
       234130   8.28661e-07
       234135   8.28657e-07
       234140   8.28654e-07
       234145    8.2865e-07
       234150   8.28647e-07
       234155   8.28643e-07
       234160    8.2864e-07
       234165   8.28636e-07
       234170   8.28633e-07
       234175   8.28629e-07
       234180   8.28626e-07
       234185   8.28622e-07
       234190   8.28619e-07
       234195   8.28615e-07
       234200   8.28611e-07
       234205   8.28608e-07
       234210   8.28604e-07
       234215   8.28601e-07
       234220   8.28597e-07
       234225   8.28594e-07
       234230    8.2859e-07
       234235   8.28587e-07
       234240   8.28583e-07
       234245    8.2858e-07
       234250   8.28576e-07
       234255   8.28573e-07
       234260   8.28569e-07
       234265   8.28566e-07
       234270   8.28562e-07
       234275   8.28558e-07
       234280   8.28555e-07
       234285   8.28551e-07
       234290   8.28548e-07
       234295   8.28544e-07
       234300   8.28541e-07
       234305   8.28537e-07
       234310   8.28534e-07
       234315    8.2853e-07
       234320   8.28527e-07
       234325   8.28523e-07
       234330    8.2852e-07
       234335   8.28516e-07
       234340   8.28513e-07
       234345   8.28509e-07
       234350   8.28506e-07
       234355   8.28502e-07
       234360   8.28498e-07
       234365   8.28495e-07
       234370   8.28491e-07
       234375   8.28488e-07
       234380   8.28484e-07
       234385   8.28481e-07
       234390   8.28477e-07
       234395   8.28474e-07
       234400    8.2847e-07
       234405   8.28467e-07
       234410   8.28463e-07
       234415    8.2846e-07
       234420   8.28456e-07
       234425   8.28453e-07
       234430   8.28449e-07
       234435   8.28446e-07
       234440   8.28442e-07
       234445   8.28439e-07
       234450   8.28435e-07
       234455   8.28432e-07
       234460   8.28428e-07
       234465   8.28425e-07
       234470   8.28421e-07
       234475   8.28418e-07
       234480   8.28414e-07
       234485   8.28411e-07
       234490   8.28407e-07
       234495   8.28404e-07
       234500     8.284e-07
       234505   8.28396e-07
       234510   8.28393e-07
       234515   8.28389e-07
       234520   8.28386e-07
       234525   8.28382e-07
       234530   8.28379e-07
       234535   8.28375e-07
       234540   8.28372e-07
       234545   8.28368e-07
       234550   8.28365e-07
       234555   8.28361e-07
       234560   8.28358e-07
       234565   8.28354e-07
       234570   8.28351e-07
       234575   8.28347e-07
       234580   8.28344e-07
       234585    8.2834e-07
       234590   8.28337e-07
       234595   8.28333e-07
       234600    8.2833e-07
       234605   8.28326e-07
       234610   8.28323e-07
       234615   8.28319e-07
       234620   8.28316e-07
       234625   8.28312e-07
       234630   8.28309e-07
       234635   8.28305e-07
       234640   8.28302e-07
       234645   8.28298e-07
       234650   8.28295e-07
       234655   8.28291e-07
       234660   8.28288e-07
       234665   8.28284e-07
       234670   8.28281e-07
       234675   8.28277e-07
       234680   8.28274e-07
       234685    8.2827e-07
       234690   8.28267e-07
       234695   8.28263e-07
       234700    8.2826e-07
       234705   8.28256e-07
       234710   8.28253e-07
       234715   8.28249e-07
       234720   8.28246e-07
       234725   8.28242e-07
       234730   8.28239e-07
       234735   8.28235e-07
       234740   8.28232e-07
       234745   8.28228e-07
       234750   8.28225e-07
       234755   8.28221e-07
       234760   8.28218e-07
       234765   8.28215e-07
       234770   8.28211e-07
       234775   8.28208e-07
       234780   8.28204e-07
       234785   8.28201e-07
       234790   8.28197e-07
       234795   8.28194e-07
       234800    8.2819e-07
       234805   8.28187e-07
       234810   8.28183e-07
       234815    8.2818e-07
       234820   8.28176e-07
       234825   8.28173e-07
       234830   8.28169e-07
       234835   8.28166e-07
       234840   8.28162e-07
       234845   8.28159e-07
       234850   8.28155e-07
       234855   8.28152e-07
       234860   8.28148e-07
       234865   8.28145e-07
       234870   8.28141e-07
       234875   8.28138e-07
       234880   8.28134e-07
       234885   8.28131e-07
       234890   8.28127e-07
       234895   8.28124e-07
       234900    8.2812e-07
       234905   8.28117e-07
       234910   8.28114e-07
       234915    8.2811e-07
       234920   8.28107e-07
       234925   8.28103e-07
       234930     8.281e-07
       234935   8.28096e-07
       234940   8.28093e-07
       234945   8.28089e-07
       234950   8.28086e-07
       234955   8.28082e-07
       234960   8.28079e-07
       234965   8.28075e-07
       234970   8.28072e-07
       234975   8.28068e-07
       234980   8.28065e-07
       234985   8.28061e-07
       234990   8.28058e-07
       234995   8.28055e-07
       235000   8.28051e-07
       235005   8.28048e-07
       235010   8.28044e-07
       235015   8.28041e-07
       235020   8.28037e-07
       235025   8.28034e-07
       235030    8.2803e-07
       235035   8.28027e-07
       235040   8.28023e-07
       235045    8.2802e-07
       235050   8.28016e-07
       235055   8.28013e-07
       235060   8.28009e-07
       235065   8.28006e-07
       235070   8.28003e-07
       235075   8.27999e-07
       235080   8.27996e-07
       235085   8.27992e-07
       235090   8.27989e-07
       235095   8.27985e-07
       235100   8.27982e-07
       235105   8.27978e-07
       235110   8.27975e-07
       235115   8.27971e-07
       235120   8.27968e-07
       235125   8.27964e-07
       235130   8.27961e-07
       235135   8.27958e-07
       235140   8.27954e-07
       235145   8.27951e-07
       235150   8.27947e-07
       235155   8.27944e-07
       235160    8.2794e-07
       235165   8.27937e-07
       235170   8.27933e-07
       235175    8.2793e-07
       235180   8.27926e-07
       235185   8.27923e-07
       235190    8.2792e-07
       235195   8.27916e-07
       235200   8.27913e-07
       235205   8.27909e-07
       235210   8.27906e-07
       235215   8.27902e-07
       235220   8.27899e-07
       235225   8.27895e-07
       235230   8.27892e-07
       235235   8.27888e-07
       235240   8.27885e-07
       235245   8.27882e-07
       235250   8.27878e-07
       235255   8.27875e-07
       235260   8.27871e-07
       235265   8.27868e-07
       235270   8.27864e-07
       235275   8.27861e-07
       235280   8.27857e-07
       235285   8.27854e-07
       235290   8.27851e-07
       235295   8.27847e-07
       235300   8.27844e-07
       235305    8.2784e-07
       235310   8.27837e-07
       235315   8.27833e-07
       235320    8.2783e-07
       235325   8.27826e-07
       235330   8.27823e-07
       235335    8.2782e-07
       235340   8.27816e-07