# Probe 0 (0.05 0.05 0.005)
#       Probe             0
#        Time
       230005   0.000671057
       230010   0.000671053
       230015   0.000671049
       230020   0.000671045
       230025   0.000671041
       230030   0.000671036
       230035   0.000671032
       230040   0.000671028
       230045   0.000671024
       230050    0.00067102
       230055   0.000671016
       230060   0.000671012
       230065   0.000671008
       230070   0.000671004
       230075   0.000670999
       230080   0.000670995
       230085   0.000670991
       230090   0.000670987
       230095   0.000670983
       230100   0.000670979
       230105   0.000670975
       230110   0.000670971
       230115   0.000670967
       230120   0.000670963
       230125   0.000670958
       230130   0.000670954
       230135    0.00067095
       230140   0.000670946
       230145   0.000670942
       230150   0.000670938
       230155   0.000670934
       230160    0.00067093
       230165   0.000670926
       230170   0.000670922
       230175   0.000670917
       230180   0.000670913
       230185   0.000670909
       230190   0.000670905
       230195   0.000670901
       230200   0.000670897
       230205   0.000670893
       230210   0.000670889
       230215   0.000670885
       230220   0.000670881
       230225   0.000670877
       230230   0.000670872
       230235   0.000670868
       230240   0.000670864
       230245    0.00067086
       230250   0.000670856
       230255   0.000670852
       230260   0.000670848
       230265   0.000670844
       230270    0.00067084
       230275   0.000670836
       230280   0.000670832
       230285   0.000670827
       230290   0.000670823
       230295   0.000670819
       230300   0.000670815
       230305   0.000670811
       230310   0.000670807
       230315   0.000670803
       230320   0.000670799
       230325   0.000670795
       230330   0.000670791
       230335   0.000670787
       230340   0.000670783
       230345   0.000670778
       230350   0.000670774
       230355    0.00067077
       230360   0.000670766
       230365   0.000670762
       230370   0.000670758
       230375   0.000670754
       230380    0.00067075
       230385   0.000670746
       230390   0.000670742
       230395   0.000670738
       230400   0.000670734
       230405    0.00067073
       230410   0.000670725
       230415   0.000670721
       230420   0.000670717
       230425   0.000670713
       230430   0.000670709
       230435   0.000670705
       230440   0.000670701
       230445   0.000670697
       230450   0.000670693
       230455   0.000670689
       230460   0.000670685
       230465   0.000670681
       230470   0.000670677
       230475   0.000670673
       230480   0.000670669
       230485   0.000670664
       230490    0.00067066
       230495   0.000670656
       230500   0.000670652
       230505   0.000670648
       230510   0.000670644
       230515    0.00067064
       230520   0.000670636
       230525   0.000670632
       230530   0.000670628
       230535   0.000670624
       230540    0.00067062
       230545   0.000670616
       230550   0.000670612
       230555   0.000670608
       230560   0.000670604
       230565   0.000670599
       230570   0.000670595
       230575   0.000670591
       230580   0.000670587
       230585   0.000670583
       230590   0.000670579
       230595   0.000670575
       230600   0.000670571
       230605   0.000670567
       230610   0.000670563
       230615   0.000670559
       230620   0.000670555
       230625   0.000670551
       230630   0.000670547
       230635   0.000670543
       230640   0.000670539
       230645   0.000670535
       230650   0.000670531
       230655   0.000670527
       230660   0.000670522
       230665   0.000670518
       230670   0.000670514
       230675    0.00067051
       230680   0.000670506
       230685   0.000670502
       230690   0.000670498
       230695   0.000670494
       230700    0.00067049
       230705   0.000670486
       230710   0.000670482
       230715   0.000670478
       230720   0.000670474
       230725    0.00067047
       230730   0.000670466
       230735   0.000670462
       230740   0.000670458
       230745   0.000670454
       230750    0.00067045
       230755   0.000670446
       230760   0.000670442
       230765   0.000670438
       230770   0.000670434
       230775    0.00067043
       230780   0.000670426
       230785   0.000670421
       230790   0.000670417
       230795   0.000670413
       230800   0.000670409
       230805   0.000670405
       230810   0.000670401
       230815   0.000670397
       230820   0.000670393
       230825   0.000670389
       230830   0.000670385
       230835   0.000670381
       230840   0.000670377
       230845   0.000670373
       230850   0.000670369
       230855   0.000670365
       230860   0.000670361
       230865   0.000670357
       230870   0.000670353
       230875   0.000670349
       230880   0.000670345
       230885   0.000670341
       230890   0.000670337
       230895   0.000670333
       230900   0.000670329
       230905   0.000670325
       230910   0.000670321
       230915   0.000670317
       230920   0.000670313
       230925   0.000670309
       230930   0.000670305
       230935   0.000670301
       230940   0.000670297
       230945   0.000670293
       230950   0.000670289
       230955   0.000670285
       230960   0.000670281
       230965   0.000670277
       230970   0.000670273
       230975   0.000670269
       230980   0.000670265
       230985   0.000670261
       230990   0.000670257
       230995   0.000670253
       231000   0.000670249
       231005   0.000670244
       231010    0.00067024
       231015   0.000670236
       231020   0.000670232
       231025   0.000670228
       231030   0.000670224
       231035    0.00067022
       231040   0.000670216
       231045   0.000670212
       231050   0.000670208
       231055   0.000670204
       231060     0.0006702
       231065   0.000670196
       231070   0.000670192
       231075   0.000670188
       231080   0.000670184
       231085    0.00067018
       231090   0.000670176
       231095   0.000670172
       231100   0.000670168
       231105   0.000670164
       231110    0.00067016
       231115   0.000670156
       231120   0.000670152
       231125   0.000670148
       231130   0.000670144
       231135    0.00067014
       231140   0.000670136
       231145   0.000670132
       231150   0.000670128
       231155   0.000670124
       231160    0.00067012
       231165   0.000670116
       231170   0.000670112
       231175   0.000670108
       231180   0.000670104
       231185     0.0006701
       231190   0.000670096
       231195   0.000670092
       231200   0.000670088
       231205   0.000670084
       231210    0.00067008
       231215   0.000670076
       231220   0.000670072
       231225   0.000670068
       231230   0.000670065
       231235   0.000670061
       231240   0.000670057
       231245   0.000670053
       231250   0.000670049
       231255   0.000670045
       231260   0.000670041
       231265   0.000670037
       231270   0.000670033
       231275   0.000670029
       231280   0.000670025
       231285   0.000670021
       231290   0.000670017
       231295   0.000670013
       231300   0.000670009
       231305   0.000670005
       231310   0.000670001
       231315   0.000669997
       231320   0.000669993
       231325   0.000669989
       231330   0.000669985
       231335   0.000669981
       231340   0.000669977
       231345   0.000669973
       231350   0.000669969
       231355   0.000669965
       231360   0.000669961
       231365   0.000669957
       231370   0.000669953
       231375   0.000669949
       231380   0.000669945
       231385   0.000669941
       231390   0.000669937
       231395   0.000669933
       231400   0.000669929
       231405   0.000669925
       231410   0.000669921
       231415   0.000669917
       231420   0.000669913
       231425   0.000669909
       231430   0.000669905
       231435   0.000669901
       231440   0.000669897
       231445   0.000669893
       231450    0.00066989
       231455   0.000669886
       231460   0.000669882
       231465   0.000669878
       231470   0.000669874
       231475    0.00066987
       231480   0.000669866
       231485   0.000669862
       231490   0.000669858
       231495   0.000669854
       231500    0.00066985
       231505   0.000669846
       231510   0.000669842
       231515   0.000669838
       231520   0.000669834
       231525    0.00066983
       231530   0.000669826
       231535   0.000669822
       231540   0.000669818
       231545   0.000669814
       231550    0.00066981
       231555   0.000669806
       231560   0.000669802
       231565   0.000669798
       231570   0.000669794
       231575   0.000669791
       231580   0.000669787
       231585   0.000669783
       231590   0.000669779
       231595   0.000669775
       231600   0.000669771
       231605   0.000669767
       231610   0.000669763
       231615   0.000669759
       231620   0.000669755
       231625   0.000669751
       231630   0.000669747
       231635   0.000669743
       231640   0.000669739
       231645   0.000669735
       231650   0.000669731
       231655   0.000669727
       231660   0.000669723
       231665   0.000669719
       231670   0.000669715
       231675   0.000669712
       231680   0.000669708
       231685   0.000669704
       231690     0.0006697
       231695   0.000669696
       231700   0.000669692
       231705   0.000669688
       231710   0.000669684
       231715    0.00066968
       231720   0.000669676
       231725   0.000669672
       231730   0.000669668
       231735   0.000669664
       231740    0.00066966
       231745   0.000669656
       231750   0.000669652
       231755   0.000669649
       231760   0.000669645
       231765   0.000669641
       231770   0.000669637
       231775   0.000669633
       231780   0.000669629
       231785   0.000669625
       231790   0.000669621
       231795   0.000669617
       231800   0.000669613
       231805   0.000669609
       231810   0.000669605
       231815   0.000669601
       231820   0.000669597
       231825   0.000669593
       231830    0.00066959
       231835   0.000669586
       231840   0.000669582
       231845   0.000669578
       231850   0.000669574
       231855    0.00066957
       231860   0.000669566
       231865   0.000669562
       231870   0.000669558
       231875   0.000669554
       231880    0.00066955
       231885   0.000669546
       231890   0.000669542
       231895   0.000669539
       231900   0.000669535
       231905   0.000669531
       231910   0.000669527
       231915   0.000669523
       231920   0.000669519
       231925   0.000669515
       231930   0.000669511
       231935   0.000669507
       231940   0.000669503
       231945   0.000669499
       231950   0.000669495
       231955   0.000669492
       231960   0.000669488
       231965   0.000669484
       231970    0.00066948
       231975   0.000669476
       231980   0.000669472
       231985   0.000669468
       231990   0.000669464
       231995    0.00066946
       232000   0.000669456
       232005   0.000669452
       232010   0.000669448
       232015   0.000669445
       232020   0.000669441
       232025   0.000669437
       232030   0.000669433
       232035   0.000669429
       232040   0.000669425
       232045   0.000669421
       232050   0.000669417
       232055   0.000669413
       232060   0.000669409
       232065   0.000669405
       232070   0.000669402
       232075   0.000669398
       232080   0.000669394
       232085    0.00066939
       232090   0.000669386
       232095   0.000669382
       232100   0.000669378
       232105   0.000669374
       232110    0.00066937
       232115   0.000669366
       232120   0.000669363
       232125   0.000669359
       232130   0.000669355
       232135   0.000669351
       232140   0.000669347
       232145   0.000669343
       232150   0.000669339
       232155   0.000669335
       232160   0.000669331
       232165   0.000669327
       232170   0.000669324
       232175    0.00066932
       232180   0.000669316
       232185   0.000669312
       232190   0.000669308
       232195   0.000669304
       232200     0.0006693
       232205   0.000669296
       232210   0.000669292
       232215   0.000669289
       232220   0.000669285
       232225   0.000669281
       232230   0.000669277
       232235   0.000669273
       232240   0.000669269
       232245   0.000669265
       232250   0.000669261
       232255   0.000669257
       232260   0.000669254
       232265    0.00066925
       232270   0.000669246
       232275   0.000669242
       232280   0.000669238
       232285   0.000669234
       232290    0.00066923
       232295   0.000669226
       232300   0.000669223
       232305   0.000669219
       232310   0.000669215
       232315   0.000669211
       232320   0.000669207
       232325   0.000669203
       232330   0.000669199
       232335   0.000669195
       232340   0.000669191
       232345   0.000669188
       232350   0.000669184
       232355    0.00066918
       232360   0.000669176
       232365   0.000669172
       232370   0.000669168
       232375   0.000669164
       232380    0.00066916
       232385   0.000669157
       232390   0.000669153
       232395   0.000669149
       232400   0.000669145
       232405   0.000669141
       232410   0.000669137
       232415   0.000669133
       232420   0.000669129
       232425   0.000669126
       232430   0.000669122
       232435   0.000669118
       232440   0.000669114
       232445    0.00066911
       232450   0.000669106
       232455   0.000669102
       232460   0.000669099
       232465   0.000669095
       232470   0.000669091
       232475   0.000669087
       232480   0.000669083
       232485   0.000669079
       232490   0.000669075
       232495   0.000669072
       232500   0.000669068
       232505   0.000669064
       232510    0.00066906
       232515   0.000669056
       232520   0.000669052
       232525   0.000669048
       232530   0.000669044
       232535   0.000669041
       232540   0.000669037
       232545   0.000669033
       232550   0.000669029
       232555   0.000669025
       232560   0.000669021
       232565   0.000669017
       232570   0.000669014
       232575    0.00066901
       232580   0.000669006
       232585   0.000669002
       232590   0.000668998
       232595   0.000668994
       232600    0.00066899
       232605   0.000668987
       232610   0.000668983
       232615   0.000668979
       232620   0.000668975
       232625   0.000668971
       232630   0.000668967
       232635   0.000668964
       232640    0.00066896
       232645   0.000668956
       232650   0.000668952
       232655   0.000668948
       232660   0.000668944
       232665    0.00066894
       232670   0.000668937
       232675   0.000668933
       232680   0.000668929
       232685   0.000668925
       232690   0.000668921
       232695   0.000668917
       232700   0.000668914
       232705    0.00066891
       232710   0.000668906
       232715   0.000668902
       232720   0.000668898
       232725   0.000668894
       232730   0.000668891
       232735   0.000668887
       232740   0.000668883
       232745   0.000668879
       232750   0.000668875
       232755   0.000668871
       232760   0.000668867
       232765   0.000668864
       232770    0.00066886
       232775   0.000668856
       232780   0.000668852
       232785   0.000668848
       232790   0.000668844
       232795   0.000668841
       232800   0.000668837
       232805   0.000668833
       232810   0.000668829
       232815   0.000668825
       232820   0.000668821
       232825   0.000668818
       232830   0.000668814
       232835    0.00066881
       232840   0.000668806
       232845   0.000668802
       232850   0.000668798
       232855   0.000668795
       232860   0.000668791
       232865   0.000668787
       232870   0.000668783
       232875   0.000668779
       232880   0.000668776
       232885   0.000668772
       232890   0.000668768
       232895   0.000668764
       232900    0.00066876
       232905   0.000668756
       232910   0.000668753
       232915   0.000668749
       232920   0.000668745
       232925   0.000668741
       232930   0.000668737
       232935   0.000668733
       232940    0.00066873
       232945   0.000668726
       232950   0.000668722
       232955   0.000668718
       232960   0.000668714
       232965   0.000668711
       232970   0.000668707
       232975   0.000668703
       232980   0.000668699
       232985   0.000668695
       232990   0.000668691
       232995   0.000668688
       233000   0.000668684
       233005    0.00066868
       233010   0.000668676
       233015   0.000668672
       233020   0.000668669
       233025   0.000668665
       233030   0.000668661
       233035   0.000668657
       233040   0.000668653
       233045    0.00066865
       233050   0.000668646
       233055   0.000668642
       233060   0.000668638
       233065   0.000668634
       233070   0.000668631
       233075   0.000668627
       233080   0.000668623
       233085   0.000668619
       233090   0.000668615
       233095   0.000668611
       233100   0.000668608
       233105   0.000668604
       233110     0.0006686
       233115   0.000668596
       233120   0.000668592
       233125   0.000668589
       233130   0.000668585
       233135   0.000668581
       233140   0.000668577
       233145   0.000668573
       233150    0.00066857
       233155   0.000668566
       233160   0.000668562
       233165   0.000668558
       233170   0.000668554
       233175   0.000668551
       233180   0.000668547
       233185   0.000668543
       233190   0.000668539
       233195   0.000668535
       233200   0.000668532
       233205   0.000668528
       233210   0.000668524
       233215    0.00066852
       233220   0.000668517
       233225   0.000668513
       233230   0.000668509
       233235   0.000668505
       233240   0.000668501
       233245   0.000668498
       233250   0.000668494
       233255    0.00066849
       233260   0.000668486
       233265   0.000668482
       233270   0.000668479
       233275   0.000668475
       233280   0.000668471
       233285   0.000668467
       233290   0.000668463
       233295    0.00066846
       233300   0.000668456
       233305   0.000668452
       233310   0.000668448
       233315   0.000668445
       233320   0.000668441
       233325   0.000668437
       233330   0.000668433
       233335   0.000668429
       233340   0.000668426
       233345   0.000668422
       233350   0.000668418
       233355   0.000668414
       233360   0.000668411
       233365   0.000668407
       233370   0.000668403
       233375   0.000668399
       233380   0.000668395
       233385   0.000668392
       233390   0.000668388
       233395   0.000668384
       233400    0.00066838
       233405   0.000668377
       233410   0.000668373
       233415   0.000668369
       233420   0.000668365
       233425   0.000668361
       233430   0.000668358
       233435   0.000668354
       233440    0.00066835
       233445   0.000668346
       233450   0.000668343
       233455   0.000668339
       233460   0.000668335
       233465   0.000668331
       233470   0.000668327
       233475   0.000668324
       233480    0.00066832
       233485   0.000668316
       233490   0.000668312
       233495   0.000668309
       233500   0.000668305
       233505   0.000668301
       233510   0.000668297
       233515   0.000668294
       233520    0.00066829
       233525   0.000668286
       233530   0.000668282
       233535   0.000668279
       233540   0.000668275
       233545   0.000668271
       233550   0.000668267
       233555   0.000668263
       233560    0.00066826
       233565   0.000668256
       233570   0.000668252
       233575   0.000668248
       233580   0.000668245
       233585   0.000668241
       233590   0.000668237
       233595   0.000668233
       233600    0.00066823
       233605   0.000668226
       233610   0.000668222
       233615   0.000668218
       233620   0.000668215
       233625   0.000668211
       233630   0.000668207
       233635   0.000668203
       233640     0.0006682
       233645   0.000668196
       233650   0.000668192
       233655   0.000668188
       233660   0.000668185
       233665   0.000668181
       233670   0.000668177
       233675   0.000668173
       233680    0.00066817
       233685   0.000668166
       233690   0.000668162
       233695   0.000668158
       233700   0.000668155
       233705   0.000668151
       233710   0.000668147
       233715   0.000668143
       233720    0.00066814
       233725   0.000668136
       233730   0.000668132
       233735   0.000668128
       233740   0.000668125
       233745   0.000668121
       233750   0.000668117
       233755   0.000668113
       233760    0.00066811
       233765   0.000668106
       233770   0.000668102
       233775   0.000668098
       233780   0.000668095
       233785   0.000668091
       233790   0.000668087
       233795   0.000668084
       233800    0.00066808
       233805   0.000668076
       233810   0.000668072
       233815   0.000668069
       233820   0.000668065
       233825   0.000668061
       233830   0.000668057
       233835   0.000668054
       233840    0.00066805
       233845   0.000668046
       233850   0.000668042
       233855   0.000668039
       233860   0.000668035
       233865   0.000668031
       233870   0.000668027
       233875   0.000668024
       233880    0.00066802
       233885   0.000668016
       233890   0.000668013
       233895   0.000668009
       233900   0.000668005
       233905   0.000668001
       233910   0.000667998
       233915   0.000667994
       233920    0.00066799
       233925   0.000667986
       233930   0.000667983
       233935   0.000667979
       233940   0.000667975
       233945   0.000667972
       233950   0.000667968
       233955   0.000667964
       233960    0.00066796
       233965   0.000667957
       233970   0.000667953
       233975   0.000667949
       233980   0.000667946
       233985   0.000667942
       233990   0.000667938
       233995   0.000667934
       234000   0.000667931
       234005   0.000667927
       234010   0.000667923
       234015   0.000667919
       234020   0.000667916
       234025   0.000667912
       234030   0.000667908
       234035   0.000667905
       234040   0.000667901
       234045   0.000667897
       234050   0.000667893
       234055    0.00066789
       234060   0.000667886
       234065   0.000667882
       234070   0.000667879
       234075   0.000667875
       234080   0.000667871
       234085   0.000667867
       234090   0.000667864
       234095    0.00066786
       234100   0.000667856
       234105   0.000667853
       234110   0.000667849
       234115   0.000667845
       234120   0.000667842
       234125   0.000667838
       234130   0.000667834
       234135    0.00066783
       234140   0.000667827
       234145   0.000667823
       234150   0.000667819
       234155   0.000667816
       234160   0.000667812
       234165   0.000667808
       234170   0.000667804
       234175   0.000667801
       234180   0.000667797
       234185   0.000667793
       234190    0.00066779
       234195   0.000667786
       234200   0.000667782
       234205   0.000667779
       234210   0.000667775
       234215   0.000667771
       234220   0.000667767
       234225   0.000667764
       234230    0.00066776
       234235   0.000667756
       234240   0.000667753
       234245   0.000667749
       234250   0.000667745
       234255   0.000667742
       234260   0.000667738
       234265   0.000667734
       234270    0.00066773
       234275   0.000667727
       234280   0.000667723
       234285   0.000667719
       234290   0.000667716
       234295   0.000667712
       234300   0.000667708
       234305   0.000667705
       234310   0.000667701
       234315   0.000667697
       234320   0.000667694
       234325    0.00066769
       234330   0.000667686
       234335   0.000667682
       234340   0.000667679
       234345   0.000667675
       234350   0.000667671
       234355   0.000667668
       234360   0.000667664
       234365    0.00066766
       234370   0.000667657
       234375   0.000667653
       234380   0.000667649
       234385   0.000667646
       234390   0.000667642
       234395   0.000667638
       234400   0.000667635
       234405   0.000667631
       234410   0.000667627
       234415   0.000667624
       234420    0.00066762
       234425   0.000667616
       234430   0.000667612
       234435   0.000667609
       234440   0.000667605
       234445   0.000667601
       234450   0.000667598
       234455   0.000667594
       234460    0.00066759
       234465   0.000667587
       234470   0.000667583
       234475   0.000667579
       234480   0.000667576
       234485   0.000667572
       234490   0.000667568
       234495   0.000667565
       234500   0.000667561
       234505   0.000667557
       234510   0.000667554
       234515    0.00066755
       234520   0.000667546
       234525   0.000667543
       234530   0.000667539
       234535   0.000667535
       234540   0.000667532
       234545   0.000667528
       234550   0.000667524
       234555   0.000667521
       234560   0.000667517
       234565   0.000667513
       234570    0.00066751
       234575   0.000667506
       234580   0.000667502
       234585   0.000667499
       234590   0.000667495
       234595   0.000667491
       234600   0.000667488
       234605   0.000667484
       234610    0.00066748
       234615   0.000667477
       234620   0.000667473
       234625   0.000667469
       234630   0.000667466
       234635   0.000667462
       234640   0.000667458
       234645   0.000667455
       234650   0.000667451
       234655   0.000667447
       234660   0.000667444
       234665    0.00066744
       234670   0.000667436
       234675   0.000667433
       234680   0.000667429
       234685   0.000667425
       234690   0.000667422
       234695   0.000667418
       234700   0.000667414
       234705   0.000667411
       234710   0.000667407
       234715   0.000667404
       234720     0.0006674
       234725   0.000667396
       234730   0.000667393
       234735   0.000667389
       234740   0.000667385
       234745   0.000667382
       234750   0.000667378
       234755   0.000667374
       234760   0.000667371
       234765   0.000667367
       234770   0.000667363
       234775    0.00066736
       234780   0.000667356
       234785   0.000667352
       234790   0.000667349
       234795   0.000667345
       234800   0.000667341
       234805   0.000667338
       234810   0.000667334
       234815   0.000667331
       234820   0.000667327
       234825   0.000667323
       234830    0.00066732
       234835   0.000667316
       234840   0.000667312
       234845   0.000667309
       234850   0.000667305
       234855   0.000667301
       234860   0.000667298
       234865   0.000667294
       234870    0.00066729
       234875   0.000667287
       234880   0.000667283
       234885    0.00066728
       234890   0.000667276
       234895   0.000667272
       234900   0.000667269
       234905   0.000667265
       234910   0.000667261
       234915   0.000667258
       234920   0.000667254
       234925    0.00066725
       234930   0.000667247
       234935   0.000667243
       234940    0.00066724
       234945   0.000667236
       234950   0.000667232
       234955   0.000667229
       234960   0.000667225
       234965   0.000667221
       234970   0.000667218
       234975   0.000667214
       234980   0.000667211
       234985   0.000667207
       234990   0.000667203
       234995     0.0006672
       235000   0.000667196
       235005   0.000667192
       235010   0.000667189
       235015   0.000667185
       235020   0.000667182
       235025   0.000667178
       235030   0.000667174
       235035   0.000667171
       235040   0.000667167
       235045   0.000667163
       235050    0.00066716
       235055   0.000667156
       235060   0.000667153
       235065   0.000667149
       235070   0.000667145
       235075   0.000667142
       235080   0.000667138
       235085   0.000667134
       235090   0.000667131
       235095   0.000667127
       235100   0.000667124
       235105    0.00066712
       235110   0.000667116
       235115   0.000667113
       235120   0.000667109
       235125   0.000667105
       235130   0.000667102
       235135   0.000667098
       235140   0.000667095
       235145   0.000667091
       235150   0.000667087
       235155   0.000667084
       235160    0.00066708
       235165   0.000667077
       235170   0.000667073
       235175   0.000667069
       235180   0.000667066
       235185   0.000667062
       235190   0.000667058
       235195   0.000667055
       235200   0.000667051
       235205   0.000667048
       235210   0.000667044
       235215    0.00066704
       235220   0.000667037
       235225   0.000667033
       235230    0.00066703
       235235   0.000667026
       235240   0.000667022
       235245   0.000667019
       235250   0.000667015
       235255   0.000667012
       235260   0.000667008
       235265   0.000667004
       235270   0.000667001
       235275   0.000666997
       235280   0.000666994
       235285    0.00066699
       235290   0.000666986
       235295   0.000666983
       235300   0.000666979
       235305   0.000666976
       235310   0.000666972
       235315   0.000666968
       235320   0.000666965
       235325   0.000666961
       235330   0.000666958
       235335   0.000666954
       235340    0.00066695