# Probe 0 (0.05 0.05 0.005)
#       Probe             0
#        Time
       230005     0.0393289
       230010     0.0393289
       230015     0.0393289
       230020     0.0393289
       230025     0.0393289
       230030     0.0393289
       230035     0.0393289
       230040     0.0393289
       230045     0.0393289
       230050     0.0393289
       230055     0.0393289
       230060     0.0393289
       230065      0.039329
       230070      0.039329
       230075      0.039329
       230080      0.039329
       230085      0.039329
       230090      0.039329
       230095      0.039329
       230100      0.039329
       230105      0.039329
       230110      0.039329
       230115      0.039329
       230120      0.039329
       230125      0.039329
       230130      0.039329
       230135      0.039329
       230140      0.039329
       230145      0.039329
       230150      0.039329
       230155      0.039329
       230160      0.039329
       230165      0.039329
       230170      0.039329
       230175      0.039329
       230180      0.039329
       230185      0.039329
       230190     0.0393291
       230195     0.0393291
       230200     0.0393291
       230205     0.0393291
       230210     0.0393291
       230215     0.0393291
       230220     0.0393291
       230225     0.0393291
       230230     0.0393291
       230235     0.0393291
       230240     0.0393291
       230245     0.0393291
       230250     0.0393291
       230255     0.0393291
       230260     0.0393291
       230265     0.0393291
       230270     0.0393291
       230275     0.0393291
       230280     0.0393291
       230285     0.0393291
       230290     0.0393291
       230295     0.0393291
       230300     0.0393291
       230305     0.0393291
       230310     0.0393292
       230315     0.0393292
       230320     0.0393292
       230325     0.0393292
       230330     0.0393292
       230335     0.0393292
       230340     0.0393292
       230345     0.0393292
       230350     0.0393292
       230355     0.0393292
       230360     0.0393292
       230365     0.0393292
       230370     0.0393292
       230375     0.0393292
       230380     0.0393292
       230385     0.0393292
       230390     0.0393292
       230395     0.0393292
       230400     0.0393292
       230405     0.0393292
       230410     0.0393292
       230415     0.0393292
       230420     0.0393292
       230425     0.0393292
       230430     0.0393292
       230435     0.0393293
       230440     0.0393293
       230445     0.0393293
       230450     0.0393293
       230455     0.0393293
       230460     0.0393293
       230465     0.0393293
       230470     0.0393293
       230475     0.0393293
       230480     0.0393293
       230485     0.0393293
       230490     0.0393293
       230495     0.0393293
       230500     0.0393293
       230505     0.0393293
       230510     0.0393293
       230515     0.0393293
       230520     0.0393293
       230525     0.0393293
       230530     0.0393293
       230535     0.0393293
       230540     0.0393293
       230545     0.0393293
       230550     0.0393293
       230555     0.0393294
       230560     0.0393294
       230565     0.0393294
       230570     0.0393294
       230575     0.0393294
       230580     0.0393294
       230585     0.0393294
       230590     0.0393294
       230595     0.0393294
       230600     0.0393294
       230605     0.0393294
       230610     0.0393294
       230615     0.0393294
       230620     0.0393294
       230625     0.0393294
       230630     0.0393294
       230635     0.0393294
       230640     0.0393294
       230645     0.0393294
       230650     0.0393294
       230655     0.0393294
       230660     0.0393294
       230665     0.0393294
       230670     0.0393294
       230675     0.0393294
       230680     0.0393295
       230685     0.0393295
       230690     0.0393295
       230695     0.0393295
       230700     0.0393295
       230705     0.0393295
       230710     0.0393295
       230715     0.0393295
       230720     0.0393295
       230725     0.0393295
       230730     0.0393295
       230735     0.0393295
       230740     0.0393295
       230745     0.0393295
       230750     0.0393295
       230755     0.0393295
       230760     0.0393295
       230765     0.0393295
       230770     0.0393295
       230775     0.0393295
       230780     0.0393295
       230785     0.0393295
       230790     0.0393295
       230795     0.0393295
       230800     0.0393295
       230805     0.0393296
       230810     0.0393296
       230815     0.0393296
       230820     0.0393296
       230825     0.0393296
       230830     0.0393296
       230835     0.0393296
       230840     0.0393296
       230845     0.0393296
       230850     0.0393296
       230855     0.0393296
       230860     0.0393296
       230865     0.0393296
       230870     0.0393296
       230875     0.0393296
       230880     0.0393296
       230885     0.0393296
       230890     0.0393296
       230895     0.0393296
       230900     0.0393296
       230905     0.0393296
       230910     0.0393296
       230915     0.0393296
       230920     0.0393296
       230925     0.0393296
       230930     0.0393297
       230935     0.0393297
       230940     0.0393297
       230945     0.0393297
       230950     0.0393297
       230955     0.0393297
       230960     0.0393297
       230965     0.0393297
       230970     0.0393297
       230975     0.0393297
       230980     0.0393297
       230985     0.0393297
       230990     0.0393297
       230995     0.0393297
       231000     0.0393297
       231005     0.0393297
       231010     0.0393297
       231015     0.0393297
       231020     0.0393297
       231025     0.0393297
       231030     0.0393297
       231035     0.0393297
       231040     0.0393297
       231045     0.0393297
       231050     0.0393298
       231055     0.0393298
       231060     0.0393298
       231065     0.0393298
       231070     0.0393298
       231075     0.0393298
       231080     0.0393298
       231085     0.0393298
       231090     0.0393298
       231095     0.0393298
       231100     0.0393298
       231105     0.0393298
       231110     0.0393298
       231115     0.0393298
       231120     0.0393298
       231125     0.0393298
       231130     0.0393298
       231135     0.0393298
       231140     0.0393298
       231145     0.0393298
       231150     0.0393298
       231155     0.0393298
       231160     0.0393298
       231165     0.0393298
       231170     0.0393298
       231175     0.0393299
       231180     0.0393299
       231185     0.0393299
       231190     0.0393299
       231195     0.0393299
       231200     0.0393299
       231205     0.0393299
       231210     0.0393299
       231215     0.0393299
       231220     0.0393299
       231225     0.0393299
       231230     0.0393299
       231235     0.0393299
       231240     0.0393299
       231245     0.0393299
       231250     0.0393299
       231255     0.0393299
       231260     0.0393299
       231265     0.0393299
       231270     0.0393299
       231275     0.0393299
       231280     0.0393299
       231285     0.0393299
       231290     0.0393299
       231295     0.0393299
       231300       0.03933
       231305       0.03933
       231310       0.03933
       231315       0.03933
       231320       0.03933
       231325       0.03933
       231330       0.03933
       231335       0.03933
       231340       0.03933
       231345       0.03933
       231350       0.03933
       231355       0.03933
       231360       0.03933
       231365       0.03933
       231370       0.03933
       231375       0.03933
       231380       0.03933
       231385       0.03933
       231390       0.03933
       231395       0.03933
       231400       0.03933
       231405       0.03933
       231410       0.03933
       231415       0.03933
       231420       0.03933
       231425       0.03933
       231430     0.0393301
       231435     0.0393301
       231440     0.0393301
       231445     0.0393301
       231450     0.0393301
       231455     0.0393301
       231460     0.0393301
       231465     0.0393301
       231470     0.0393301
       231475     0.0393301
       231480     0.0393301
       231485     0.0393301
       231490     0.0393301
       231495     0.0393301
       231500     0.0393301
       231505     0.0393301
       231510     0.0393301
       231515     0.0393301
       231520     0.0393301
       231525     0.0393301
       231530     0.0393301
       231535     0.0393301
       231540     0.0393301
       231545     0.0393301
       231550     0.0393301
       231555     0.0393302
       231560     0.0393302
       231565     0.0393302
       231570     0.0393302
       231575     0.0393302
       231580     0.0393302
       231585     0.0393302
       231590     0.0393302
       231595     0.0393302
       231600     0.0393302
       231605     0.0393302
       231610     0.0393302
       231615     0.0393302
       231620     0.0393302
       231625     0.0393302
       231630     0.0393302
       231635     0.0393302
       231640     0.0393302
       231645     0.0393302
       231650     0.0393302
       231655     0.0393302
       231660     0.0393302
       231665     0.0393302
       231670     0.0393302
       231675     0.0393302
       231680     0.0393303
       231685     0.0393303
       231690     0.0393303
       231695     0.0393303
       231700     0.0393303
       231705     0.0393303
       231710     0.0393303
       231715     0.0393303
       231720     0.0393303
       231725     0.0393303
       231730     0.0393303
       231735     0.0393303
       231740     0.0393303
       231745     0.0393303
       231750     0.0393303
       231755     0.0393303
       231760     0.0393303
       231765     0.0393303
       231770     0.0393303
       231775     0.0393303
       231780     0.0393303
       231785     0.0393303
       231790     0.0393303
       231795     0.0393303
       231800     0.0393303
       231805     0.0393303
       231810     0.0393304
       231815     0.0393304
       231820     0.0393304
       231825     0.0393304
       231830     0.0393304
       231835     0.0393304
       231840     0.0393304
       231845     0.0393304
       231850     0.0393304
       231855     0.0393304
       231860     0.0393304
       231865     0.0393304
       231870     0.0393304
       231875     0.0393304
       231880     0.0393304
       231885     0.0393304
       231890     0.0393304
       231895     0.0393304
       231900     0.0393304
       231905     0.0393304
       231910     0.0393304
       231915     0.0393304
       231920     0.0393304
       231925     0.0393304
       231930     0.0393304
       231935     0.0393305
       231940     0.0393305
       231945     0.0393305
       231950     0.0393305
       231955     0.0393305
       231960     0.0393305
       231965     0.0393305
       231970     0.0393305
       231975     0.0393305
       231980     0.0393305
       231985     0.0393305
       231990     0.0393305
       231995     0.0393305
       232000     0.0393305
       232005     0.0393305
       232010     0.0393305
       232015     0.0393305
       232020     0.0393305
       232025     0.0393305
       232030     0.0393305
       232035     0.0393305
       232040     0.0393305
       232045     0.0393305
       232050     0.0393305
       232055     0.0393305
       232060     0.0393305
       232065     0.0393306
       232070     0.0393306
       232075     0.0393306
       232080     0.0393306
       232085     0.0393306
       232090     0.0393306
       232095     0.0393306
       232100     0.0393306
       232105     0.0393306
       232110     0.0393306
       232115     0.0393306
       232120     0.0393306
       232125     0.0393306
       232130     0.0393306
       232135     0.0393306
       232140     0.0393306
       232145     0.0393306
       232150     0.0393306
       232155     0.0393306
       232160     0.0393306
       232165     0.0393306
       232170     0.0393306
       232175     0.0393306
       232180     0.0393306
       232185     0.0393306
       232190     0.0393307
       232195     0.0393307
       232200     0.0393307
       232205     0.0393307
       232210     0.0393307
       232215     0.0393307
       232220     0.0393307
       232225     0.0393307
       232230     0.0393307
       232235     0.0393307
       232240     0.0393307
       232245     0.0393307
       232250     0.0393307
       232255     0.0393307
       232260     0.0393307
       232265     0.0393307
       232270     0.0393307
       232275     0.0393307
       232280     0.0393307
       232285     0.0393307
       232290     0.0393307
       232295     0.0393307
       232300     0.0393307
       232305     0.0393307
       232310     0.0393307
       232315     0.0393307
       232320     0.0393308
       232325     0.0393308
       232330     0.0393308
       232335     0.0393308
       232340     0.0393308
       232345     0.0393308
       232350     0.0393308
       232355     0.0393308
       232360     0.0393308
       232365     0.0393308
       232370     0.0393308
       232375     0.0393308
       232380     0.0393308
       232385     0.0393308
       232390     0.0393308
       232395     0.0393308
       232400     0.0393308
       232405     0.0393308
       232410     0.0393308
       232415     0.0393308
       232420     0.0393308
       232425     0.0393308
       232430     0.0393308
       232435     0.0393308
       232440     0.0393308
       232445     0.0393308
       232450     0.0393309
       232455     0.0393309
       232460     0.0393309
       232465     0.0393309
       232470     0.0393309
       232475     0.0393309
       232480     0.0393309
       232485     0.0393309
       232490     0.0393309
       232495     0.0393309
       232500     0.0393309
       232505     0.0393309
       232510     0.0393309
       232515     0.0393309
       232520     0.0393309
       232525     0.0393309
       232530     0.0393309
       232535     0.0393309
       232540     0.0393309
       232545     0.0393309
       232550     0.0393309
       232555     0.0393309
       232560     0.0393309
       232565     0.0393309
       232570     0.0393309
       232575     0.0393309
       232580      0.039331
       232585      0.039331
       232590      0.039331
       232595      0.039331
       232600      0.039331
       232605      0.039331
       232610      0.039331
       232615      0.039331
       232620      0.039331
       232625      0.039331
       232630      0.039331
       232635      0.039331
       232640      0.039331
       232645      0.039331
       232650      0.039331
       232655      0.039331
       232660      0.039331
       232665      0.039331
       232670      0.039331
       232675      0.039331
       232680      0.039331
       232685      0.039331
       232690      0.039331
       232695      0.039331
       232700      0.039331
       232705      0.039331
       232710     0.0393311
       232715     0.0393311
       232720     0.0393311
       232725     0.0393311
       232730     0.0393311
       232735     0.0393311
       232740     0.0393311
       232745     0.0393311
       232750     0.0393311
       232755     0.0393311
       232760     0.0393311
       232765     0.0393311
       232770     0.0393311
       232775     0.0393311
       232780     0.0393311
       232785     0.0393311
       232790     0.0393311
       232795     0.0393311
       232800     0.0393311
       232805     0.0393311
       232810     0.0393311
       232815     0.0393311
       232820     0.0393311
       232825     0.0393311
       232830     0.0393311
       232835     0.0393311
       232840     0.0393312
       232845     0.0393312
       232850     0.0393312
       232855     0.0393312
       232860     0.0393312
       232865     0.0393312
       232870     0.0393312
       232875     0.0393312
       232880     0.0393312
       232885     0.0393312
       232890     0.0393312
       232895     0.0393312
       232900     0.0393312
       232905     0.0393312
       232910     0.0393312
       232915     0.0393312
       232920     0.0393312
       232925     0.0393312
       232930     0.0393312
       232935     0.0393312
       232940     0.0393312
       232945     0.0393312
       232950     0.0393312
       232955     0.0393312
       232960     0.0393312
       232965     0.0393312
       232970     0.0393313
       232975     0.0393313
       232980     0.0393313
       232985     0.0393313
       232990     0.0393313
       232995     0.0393313
       233000     0.0393313
       233005     0.0393313
       233010     0.0393313
       233015     0.0393313
       233020     0.0393313
       233025     0.0393313
       233030     0.0393313
       233035     0.0393313
       233040     0.0393313
       233045     0.0393313
       233050     0.0393313
       233055     0.0393313
       233060     0.0393313
       233065     0.0393313
       233070     0.0393313
       233075     0.0393313
       233080     0.0393313
       233085     0.0393313
       233090     0.0393313
       233095     0.0393313
       233100     0.0393314
       233105     0.0393314
       233110     0.0393314
       233115     0.0393314
       233120     0.0393314
       233125     0.0393314
       233130     0.0393314
       233135     0.0393314
       233140     0.0393314
       233145     0.0393314
       233150     0.0393314
       233155     0.0393314
       233160     0.0393314
       233165     0.0393314
       233170     0.0393314
       233175     0.0393314
       233180     0.0393314
       233185     0.0393314
       233190     0.0393314
       233195     0.0393314
       233200     0.0393314
       233205     0.0393314
       233210     0.0393314
       233215     0.0393314
       233220     0.0393314
       233225     0.0393314
       233230     0.0393314
       233235     0.0393315
       233240     0.0393315
       233245     0.0393315
       233250     0.0393315
       233255     0.0393315
       233260     0.0393315
       233265     0.0393315
       233270     0.0393315
       233275     0.0393315
       233280     0.0393315
       233285     0.0393315
       233290     0.0393315
       233295     0.0393315
       233300     0.0393315
       233305     0.0393315
       233310     0.0393315
       233315     0.0393315
       233320     0.0393315
       233325     0.0393315
       233330     0.0393315
       233335     0.0393315
       233340     0.0393315
       233345     0.0393315
       233350     0.0393315
       233355     0.0393315
       233360     0.0393315
       233365     0.0393316
       233370     0.0393316
       233375     0.0393316
       233380     0.0393316
       233385     0.0393316
       233390     0.0393316
       233395     0.0393316
       233400     0.0393316
       233405     0.0393316
       233410     0.0393316
       233415     0.0393316
       233420     0.0393316
       233425     0.0393316
       233430     0.0393316
       233435     0.0393316
       233440     0.0393316
       233445     0.0393316
       233450     0.0393316
       233455     0.0393316
       233460     0.0393316
       233465     0.0393316
       233470     0.0393316
       233475     0.0393316
       233480     0.0393316
       233485     0.0393316
       233490     0.0393316
       233495     0.0393317
       233500     0.0393317
       233505     0.0393317
       233510     0.0393317
       233515     0.0393317
       233520     0.0393317
       233525     0.0393317
       233530     0.0393317
       233535     0.0393317
       233540     0.0393317
       233545     0.0393317
       233550     0.0393317
       233555     0.0393317
       233560     0.0393317
       233565     0.0393317
       233570     0.0393317
       233575     0.0393317
       233580     0.0393317
       233585     0.0393317
       233590     0.0393317
       233595     0.0393317
       233600     0.0393317
       233605     0.0393317
       233610     0.0393317
       233615     0.0393317
       233620     0.0393317
       233625     0.0393317
       233630     0.0393318
       233635     0.0393318
       233640     0.0393318
       233645     0.0393318
       233650     0.0393318
       233655     0.0393318
       233660     0.0393318
       233665     0.0393318
       233670     0.0393318
       233675     0.0393318
       233680     0.0393318
       233685     0.0393318
       233690     0.0393318
       233695     0.0393318
       233700     0.0393318
       233705     0.0393318
       233710     0.0393318
       233715     0.0393318
       233720     0.0393318
       233725     0.0393318
       233730     0.0393318
       233735     0.0393318
       233740     0.0393318
       233745     0.0393318
       233750     0.0393318
       233755     0.0393318
       233760     0.0393318
       233765     0.0393319
       233770     0.0393319
       233775     0.0393319
       233780     0.0393319
       233785     0.0393319
       233790     0.0393319
       233795     0.0393319
       233800     0.0393319
       233805     0.0393319
       233810     0.0393319
       233815     0.0393319
       233820     0.0393319
       233825     0.0393319
       233830     0.0393319
       233835     0.0393319
       233840     0.0393319
       233845     0.0393319
       233850     0.0393319
       233855     0.0393319
       233860     0.0393319
       233865     0.0393319
       233870     0.0393319
       233875     0.0393319
       233880     0.0393319
       233885     0.0393319
       233890     0.0393319
       233895     0.0393319
       233900      0.039332
       233905      0.039332
       233910      0.039332
       233915      0.039332
       233920      0.039332
       233925      0.039332
       233930      0.039332
       233935      0.039332
       233940      0.039332
       233945      0.039332
       233950      0.039332
       233955      0.039332
       233960      0.039332
       233965      0.039332
       233970      0.039332
       233975      0.039332
       233980      0.039332
       233985      0.039332
       233990      0.039332
       233995      0.039332
       234000      0.039332
       234005      0.039332
       234010      0.039332
       234015      0.039332
       234020      0.039332
       234025      0.039332
       234030     0.0393321
       234035     0.0393321
       234040     0.0393321
       234045     0.0393321
       234050     0.0393321
       234055     0.0393321
       234060     0.0393321
       234065     0.0393321
       234070     0.0393321
       234075     0.0393321
       234080     0.0393321
       234085     0.0393321
       234090     0.0393321
       234095     0.0393321
       234100     0.0393321
       234105     0.0393321
       234110     0.0393321
       234115     0.0393321
       234120     0.0393321
       234125     0.0393321
       234130     0.0393321
       234135     0.0393321
       234140     0.0393321
       234145     0.0393321
       234150     0.0393321
       234155     0.0393321
       234160     0.0393321
       234165     0.0393322
       234170     0.0393322
       234175     0.0393322
       234180     0.0393322
       234185     0.0393322
       234190     0.0393322
       234195     0.0393322
       234200     0.0393322
       234205     0.0393322
       234210     0.0393322
       234215     0.0393322
       234220     0.0393322
       234225     0.0393322
       234230     0.0393322
       234235     0.0393322
       234240     0.0393322
       234245     0.0393322
       234250     0.0393322
       234255     0.0393322
       234260     0.0393322
       234265     0.0393322
       234270     0.0393322
       234275     0.0393322
       234280     0.0393322
       234285     0.0393322
       234290     0.0393322
       234295     0.0393322
       234300     0.0393323
       234305     0.0393323
       234310     0.0393323
       234315     0.0393323
       234320     0.0393323
       234325     0.0393323
       234330     0.0393323
       234335     0.0393323
       234340     0.0393323
       234345     0.0393323
       234350     0.0393323
       234355     0.0393323
       234360     0.0393323
       234365     0.0393323
       234370     0.0393323
       234375     0.0393323
       234380     0.0393323
       234385     0.0393323
       234390     0.0393323
       234395     0.0393323
       234400     0.0393323
       234405     0.0393323
       234410     0.0393323
       234415     0.0393323
       234420     0.0393323
       234425     0.0393323
       234430     0.0393323
       234435     0.0393323
       234440     0.0393324
       234445     0.0393324
       234450     0.0393324
       234455     0.0393324
       234460     0.0393324
       234465     0.0393324
       234470     0.0393324
       234475     0.0393324
       234480     0.0393324
       234485     0.0393324
       234490     0.0393324
       234495     0.0393324
       234500     0.0393324
       234505     0.0393324
       234510     0.0393324
       234515     0.0393324
       234520     0.0393324
       234525     0.0393324
       234530     0.0393324
       234535     0.0393324
       234540     0.0393324
       234545     0.0393324
       234550     0.0393324
       234555     0.0393324
       234560     0.0393324
       234565     0.0393324
       234570     0.0393324
       234575     0.0393325
       234580     0.0393325
       234585     0.0393325
       234590     0.0393325
       234595     0.0393325
       234600     0.0393325
       234605     0.0393325
       234610     0.0393325
       234615     0.0393325
       234620     0.0393325
       234625     0.0393325
       234630     0.0393325
       234635     0.0393325
       234640     0.0393325
       234645     0.0393325
       234650     0.0393325
       234655     0.0393325
       234660     0.0393325
       234665     0.0393325
       234670     0.0393325
       234675     0.0393325
       234680     0.0393325
       234685     0.0393325
       234690     0.0393325
       234695     0.0393325
       234700     0.0393325
       234705     0.0393325
       234710     0.0393326
       234715     0.0393326
       234720     0.0393326
       234725     0.0393326
       234730     0.0393326
       234735     0.0393326
       234740     0.0393326
       234745     0.0393326
       234750     0.0393326
       234755     0.0393326
       234760     0.0393326
       234765     0.0393326
       234770     0.0393326
       234775     0.0393326
       234780     0.0393326
       234785     0.0393326
       234790     0.0393326
       234795     0.0393326
       234800     0.0393326
       234805     0.0393326
       234810     0.0393326
       234815     0.0393326
       234820     0.0393326
       234825     0.0393326
       234830     0.0393326
       234835     0.0393326
       234840     0.0393326
       234845     0.0393327
       234850     0.0393327
       234855     0.0393327
       234860     0.0393327
       234865     0.0393327
       234870     0.0393327
       234875     0.0393327
       234880     0.0393327
       234885     0.0393327
       234890     0.0393327
       234895     0.0393327
       234900     0.0393327
       234905     0.0393327
       234910     0.0393327
       234915     0.0393327
       234920     0.0393327
       234925     0.0393327
       234930     0.0393327
       234935     0.0393327
       234940     0.0393327
       234945     0.0393327
       234950     0.0393327
       234955     0.0393327
       234960     0.0393327
       234965     0.0393327
       234970     0.0393327
       234975     0.0393327
       234980     0.0393327
       234985     0.0393328
       234990     0.0393328
       234995     0.0393328
       235000     0.0393328
       235005     0.0393328
       235010     0.0393328
       235015     0.0393328
       235020     0.0393328
       235025     0.0393328
       235030     0.0393328
       235035     0.0393328
       235040     0.0393328
       235045     0.0393328
       235050     0.0393328
       235055     0.0393328
       235060     0.0393328
       235065     0.0393328
       235070     0.0393328
       235075     0.0393328
       235080     0.0393328
       235085     0.0393328
       235090     0.0393328
       235095     0.0393328
       235100     0.0393328
       235105     0.0393328
       235110     0.0393328
       235115     0.0393328
       235120     0.0393328
       235125     0.0393329
       235130     0.0393329
       235135     0.0393329
       235140     0.0393329
       235145     0.0393329
       235150     0.0393329
       235155     0.0393329
       235160     0.0393329
       235165     0.0393329
       235170     0.0393329
       235175     0.0393329
       235180     0.0393329
       235185     0.0393329
       235190     0.0393329
       235195     0.0393329
       235200     0.0393329
       235205     0.0393329
       235210     0.0393329
       235215     0.0393329
       235220     0.0393329
       235225     0.0393329
       235230     0.0393329
       235235     0.0393329
       235240     0.0393329
       235245     0.0393329
       235250     0.0393329
       235255     0.0393329
       235260      0.039333
       235265      0.039333
       235270      0.039333
       235275      0.039333
       235280      0.039333
       235285      0.039333
       235290      0.039333
       235295      0.039333
       235300      0.039333
       235305      0.039333
       235310      0.039333
       235315      0.039333
       235320      0.039333
       235325      0.039333
       235330      0.039333
       235335      0.039333
       235340      0.039333