# Probe 0 (0.05 0.05 0.005)
#       Probe             0
#        Time
       230005   0.000671066
       230010   0.000671062
       230015   0.000671058
       230020   0.000671054
       230025    0.00067105
       230030   0.000671046
       230035   0.000671042
       230040   0.000671037
       230045   0.000671033
       230050   0.000671029
       230055   0.000671025
       230060   0.000671021
       230065   0.000671017
       230070   0.000671013
       230075   0.000671009
       230080   0.000671005
       230085   0.000671001
       230090   0.000670996
       230095   0.000670992
       230100   0.000670988
       230105   0.000670984
       230110    0.00067098
       230115   0.000670976
       230120   0.000670972
       230125   0.000670968
       230130   0.000670964
       230135   0.000670959
       230140   0.000670955
       230145   0.000670951
       230150   0.000670947
       230155   0.000670943
       230160   0.000670939
       230165   0.000670935
       230170   0.000670931
       230175   0.000670927
       230180   0.000670923
       230185   0.000670918
       230190   0.000670914
       230195    0.00067091
       230200   0.000670906
       230205   0.000670902
       230210   0.000670898
       230215   0.000670894
       230220    0.00067089
       230225   0.000670886
       230230   0.000670882
       230235   0.000670878
       230240   0.000670873
       230245   0.000670869
       230250   0.000670865
       230255   0.000670861
       230260   0.000670857
       230265   0.000670853
       230270   0.000670849
       230275   0.000670845
       230280   0.000670841
       230285   0.000670837
       230290   0.000670833
       230295   0.000670828
       230300   0.000670824
       230305    0.00067082
       230310   0.000670816
       230315   0.000670812
       230320   0.000670808
       230325   0.000670804
       230330     0.0006708
       230335   0.000670796
       230340   0.000670792
       230345   0.000670788
       230350   0.000670784
       230355    0.00067078
       230360   0.000670775
       230365   0.000670771
       230370   0.000670767
       230375   0.000670763
       230380   0.000670759
       230385   0.000670755
       230390   0.000670751
       230395   0.000670747
       230400   0.000670743
       230405   0.000670739
       230410   0.000670735
       230415   0.000670731
       230420   0.000670727
       230425   0.000670722
       230430   0.000670718
       230435   0.000670714
       230440    0.00067071
       230445   0.000670706
       230450   0.000670702
       230455   0.000670698
       230460   0.000670694
       230465    0.00067069
       230470   0.000670686
       230475   0.000670682
       230480   0.000670678
       230485   0.000670674
       230490    0.00067067
       230495   0.000670666
       230500   0.000670661
       230505   0.000670657
       230510   0.000670653
       230515   0.000670649
       230520   0.000670645
       230525   0.000670641
       230530   0.000670637
       230535   0.000670633
       230540   0.000670629
       230545   0.000670625
       230550   0.000670621
       230555   0.000670617
       230560   0.000670613
       230565   0.000670609
       230570   0.000670605
       230575   0.000670601
       230580   0.000670597
       230585   0.000670592
       230590   0.000670588
       230595   0.000670584
       230600    0.00067058
       230605   0.000670576
       230610   0.000670572
       230615   0.000670568
       230620   0.000670564
       230625    0.00067056
       230630   0.000670556
       230635   0.000670552
       230640   0.000670548
       230645   0.000670544
       230650    0.00067054
       230655   0.000670536
       230660   0.000670532
       230665   0.000670528
       230670   0.000670524
       230675    0.00067052
       230680   0.000670516
       230685   0.000670511
       230690   0.000670507
       230695   0.000670503
       230700   0.000670499
       230705   0.000670495
       230710   0.000670491
       230715   0.000670487
       230720   0.000670483
       230725   0.000670479
       230730   0.000670475
       230735   0.000670471
       230740   0.000670467
       230745   0.000670463
       230750   0.000670459
       230755   0.000670455
       230760   0.000670451
       230765   0.000670447
       230770   0.000670443
       230775   0.000670439
       230780   0.000670435
       230785   0.000670431
       230790   0.000670427
       230795   0.000670423
       230800   0.000670419
       230805   0.000670415
       230810   0.000670411
       230815   0.000670407
       230820   0.000670402
       230825   0.000670398
       230830   0.000670394
       230835    0.00067039
       230840   0.000670386
       230845   0.000670382
       230850   0.000670378
       230855   0.000670374
       230860    0.00067037
       230865   0.000670366
       230870   0.000670362
       230875   0.000670358
       230880   0.000670354
       230885    0.00067035
       230890   0.000670346
       230895   0.000670342
       230900   0.000670338
       230905   0.000670334
       230910    0.00067033
       230915   0.000670326
       230920   0.000670322
       230925   0.000670318
       230930   0.000670314
       230935    0.00067031
       230940   0.000670306
       230945   0.000670302
       230950   0.000670298
       230955   0.000670294
       230960    0.00067029
       230965   0.000670286
       230970   0.000670282
       230975   0.000670278
       230980   0.000670274
       230985    0.00067027
       230990   0.000670266
       230995   0.000670262
       231000   0.000670258
       231005   0.000670254
       231010    0.00067025
       231015   0.000670246
       231020   0.000670242
       231025   0.000670238
       231030   0.000670234
       231035    0.00067023
       231040   0.000670226
       231045   0.000670222
       231050   0.000670218
       231055   0.000670214
       231060    0.00067021
       231065   0.000670206
       231070   0.000670202
       231075   0.000670198
       231080   0.000670194
       231085    0.00067019
       231090   0.000670186
       231095   0.000670182
       231100   0.000670178
       231105   0.000670174
       231110    0.00067017
       231115   0.000670166
       231120   0.000670162
       231125   0.000670158
       231130   0.000670154
       231135    0.00067015
       231140   0.000670146
       231145   0.000670142
       231150   0.000670138
       231155   0.000670134
       231160    0.00067013
       231165   0.000670126
       231170   0.000670122
       231175   0.000670118
       231180   0.000670114
       231185    0.00067011
       231190   0.000670106
       231195   0.000670102
       231200   0.000670098
       231205   0.000670094
       231210    0.00067009
       231215   0.000670086
       231220   0.000670082
       231225   0.000670078
       231230   0.000670074
       231235    0.00067007
       231240   0.000670066
       231245   0.000670062
       231250   0.000670058
       231255   0.000670054
       231260    0.00067005
       231265   0.000670046
       231270   0.000670042
       231275   0.000670038
       231280   0.000670034
       231285    0.00067003
       231290   0.000670026
       231295   0.000670022
       231300   0.000670018
       231305   0.000670014
       231310    0.00067001
       231315   0.000670006
       231320   0.000670002
       231325   0.000669998
       231330   0.000669994
       231335    0.00066999
       231340   0.000669986
       231345   0.000669982
       231350   0.000669978
       231355   0.000669974
       231360    0.00066997
       231365   0.000669966
       231370   0.000669962
       231375   0.000669958
       231380   0.000669954
       231385    0.00066995
       231390   0.000669946
       231395   0.000669942
       231400   0.000669938
       231405   0.000669934
       231410    0.00066993
       231415   0.000669927
       231420   0.000669923
       231425   0.000669919
       231430   0.000669915
       231435   0.000669911
       231440   0.000669907
       231445   0.000669903
       231450   0.000669899
       231455   0.000669895
       231460   0.000669891
       231465   0.000669887
       231470   0.000669883
       231475   0.000669879
       231480   0.000669875
       231485   0.000669871
       231490   0.000669867
       231495   0.000669863
       231500   0.000669859
       231505   0.000669855
       231510   0.000669851
       231515   0.000669847
       231520   0.000669843
       231525   0.000669839
       231530   0.000669835
       231535   0.000669831
       231540   0.000669827
       231545   0.000669823
       231550    0.00066982
       231555   0.000669816
       231560   0.000669812
       231565   0.000669808
       231570   0.000669804
       231575     0.0006698
       231580   0.000669796
       231585   0.000669792
       231590   0.000669788
       231595   0.000669784
       231600    0.00066978
       231605   0.000669776
       231610   0.000669772
       231615   0.000669768
       231620   0.000669764
       231625    0.00066976
       231630   0.000669756
       231635   0.000669752
       231640   0.000669748
       231645   0.000669744
       231650    0.00066974
       231655   0.000669737
       231660   0.000669733
       231665   0.000669729
       231670   0.000669725
       231675   0.000669721
       231680   0.000669717
       231685   0.000669713
       231690   0.000669709
       231695   0.000669705
       231700   0.000669701
       231705   0.000669697
       231710   0.000669693
       231715   0.000669689
       231720   0.000669685
       231725   0.000669681
       231730   0.000669677
       231735   0.000669673
       231740    0.00066967
       231745   0.000669666
       231750   0.000669662
       231755   0.000669658
       231760   0.000669654
       231765    0.00066965
       231770   0.000669646
       231775   0.000669642
       231780   0.000669638
       231785   0.000669634
       231790    0.00066963
       231795   0.000669626
       231800   0.000669622
       231805   0.000669618
       231810   0.000669614
       231815   0.000669611
       231820   0.000669607
       231825   0.000669603
       231830   0.000669599
       231835   0.000669595
       231840   0.000669591
       231845   0.000669587
       231850   0.000669583
       231855   0.000669579
       231860   0.000669575
       231865   0.000669571
       231870   0.000669567
       231875   0.000669563
       231880    0.00066956
       231885   0.000669556
       231890   0.000669552
       231895   0.000669548
       231900   0.000669544
       231905    0.00066954
       231910   0.000669536
       231915   0.000669532
       231920   0.000669528
       231925   0.000669524
       231930    0.00066952
       231935   0.000669516
       231940   0.000669512
       231945   0.000669509
       231950   0.000669505
       231955   0.000669501
       231960   0.000669497
       231965   0.000669493
       231970   0.000669489
       231975   0.000669485
       231980   0.000669481
       231985   0.000669477
       231990   0.000669473
       231995   0.000669469
       232000   0.000669466
       232005   0.000669462
       232010   0.000669458
       232015   0.000669454
       232020    0.00066945
       232025   0.000669446
       232030   0.000669442
       232035   0.000669438
       232040   0.000669434
       232045    0.00066943
       232050   0.000669426
       232055   0.000669423
       232060   0.000669419
       232065   0.000669415
       232070   0.000669411
       232075   0.000669407
       232080   0.000669403
       232085   0.000669399
       232090   0.000669395
       232095   0.000669391
       232100   0.000669387
       232105   0.000669383
       232110    0.00066938
       232115   0.000669376
       232120   0.000669372
       232125   0.000669368
       232130   0.000669364
       232135    0.00066936
       232140   0.000669356
       232145   0.000669352
       232150   0.000669348
       232155   0.000669344
       232160   0.000669341
       232165   0.000669337
       232170   0.000669333
       232175   0.000669329
       232180   0.000669325
       232185   0.000669321
       232190   0.000669317
       232195   0.000669313
       232200   0.000669309
       232205   0.000669306
       232210   0.000669302
       232215   0.000669298
       232220   0.000669294
       232225    0.00066929
       232230   0.000669286
       232235   0.000669282
       232240   0.000669278
       232245   0.000669274
       232250   0.000669271
       232255   0.000669267
       232260   0.000669263
       232265   0.000669259
       232270   0.000669255
       232275   0.000669251
       232280   0.000669247
       232285   0.000669243
       232290   0.000669239
       232295   0.000669236
       232300   0.000669232
       232305   0.000669228
       232310   0.000669224
       232315    0.00066922
       232320   0.000669216
       232325   0.000669212
       232330   0.000669208
       232335   0.000669205
       232340   0.000669201
       232345   0.000669197
       232350   0.000669193
       232355   0.000669189
       232360   0.000669185
       232365   0.000669181
       232370   0.000669177
       232375   0.000669174
       232380    0.00066917
       232385   0.000669166
       232390   0.000669162
       232395   0.000669158
       232400   0.000669154
       232405    0.00066915
       232410   0.000669146
       232415   0.000669143
       232420   0.000669139
       232425   0.000669135
       232430   0.000669131
       232435   0.000669127
       232440   0.000669123
       232445   0.000669119
       232450   0.000669116
       232455   0.000669112
       232460   0.000669108
       232465   0.000669104
       232470     0.0006691
       232475   0.000669096
       232480   0.000669092
       232485   0.000669088
       232490   0.000669085
       232495   0.000669081
       232500   0.000669077
       232505   0.000669073
       232510   0.000669069
       232515   0.000669065
       232520   0.000669061
       232525   0.000669058
       232530   0.000669054
       232535    0.00066905
       232540   0.000669046
       232545   0.000669042
       232550   0.000669038
       232555   0.000669034
       232560   0.000669031
       232565   0.000669027
       232570   0.000669023
       232575   0.000669019
       232580   0.000669015
       232585   0.000669011
       232590   0.000669007
       232595   0.000669004
       232600      0.000669
       232605   0.000668996
       232610   0.000668992
       232615   0.000668988
       232620   0.000668984
       232625    0.00066898
       232630   0.000668977
       232635   0.000668973
       232640   0.000668969
       232645   0.000668965
       232650   0.000668961
       232655   0.000668957
       232660   0.000668954
       232665    0.00066895
       232670   0.000668946
       232675   0.000668942
       232680   0.000668938
       232685   0.000668934
       232690    0.00066893
       232695   0.000668927
       232700   0.000668923
       232705   0.000668919
       232710   0.000668915
       232715   0.000668911
       232720   0.000668907
       232725   0.000668904
       232730     0.0006689
       232735   0.000668896
       232740   0.000668892
       232745   0.000668888
       232750   0.000668884
       232755   0.000668881
       232760   0.000668877
       232765   0.000668873
       232770   0.000668869
       232775   0.000668865
       232780   0.000668861
       232785   0.000668858
       232790   0.000668854
       232795    0.00066885
       232800   0.000668846
       232805   0.000668842
       232810   0.000668838
       232815   0.000668835
       232820   0.000668831
       232825   0.000668827
       232830   0.000668823
       232835   0.000668819
       232840   0.000668815
       232845   0.000668812
       232850   0.000668808
       232855   0.000668804
       232860     0.0006688
       232865   0.000668796
       232870   0.000668792
       232875   0.000668789
       232880   0.000668785
       232885   0.000668781
       232890   0.000668777
       232895   0.000668773
       232900   0.000668769
       232905   0.000668766
       232910   0.000668762
       232915   0.000668758
       232920   0.000668754
       232925    0.00066875
       232930   0.000668747
       232935   0.000668743
       232940   0.000668739
       232945   0.000668735
       232950   0.000668731
       232955   0.000668727
       232960   0.000668724
       232965    0.00066872
       232970   0.000668716
       232975   0.000668712
       232980   0.000668708
       232985   0.000668705
       232990   0.000668701
       232995   0.000668697
       233000   0.000668693
       233005   0.000668689
       233010   0.000668685
       233015   0.000668682
       233020   0.000668678
       233025   0.000668674
       233030    0.00066867
       233035   0.000668666
       233040   0.000668663
       233045   0.000668659
       233050   0.000668655
       233055   0.000668651
       233060   0.000668647
       233065   0.000668644
       233070    0.00066864
       233075   0.000668636
       233080   0.000668632
       233085   0.000668628
       233090   0.000668625
       233095   0.000668621
       233100   0.000668617
       233105   0.000668613
       233110   0.000668609
       233115   0.000668605
       233120   0.000668602
       233125   0.000668598
       233130   0.000668594
       233135    0.00066859
       233140   0.000668586
       233145   0.000668583
       233150   0.000668579
       233155   0.000668575
       233160   0.000668571
       233165   0.000668567
       233170   0.000668564
       233175    0.00066856
       233180   0.000668556
       233185   0.000668552
       233190   0.000668549
       233195   0.000668545
       233200   0.000668541
       233205   0.000668537
       233210   0.000668533
       233215    0.00066853
       233220   0.000668526
       233225   0.000668522
       233230   0.000668518
       233235   0.000668514
       233240   0.000668511
       233245   0.000668507
       233250   0.000668503
       233255   0.000668499
       233260   0.000668495
       233265   0.000668492
       233270   0.000668488
       233275   0.000668484
       233280    0.00066848
       233285   0.000668476
       233290   0.000668473
       233295   0.000668469
       233300   0.000668465
       233305   0.000668461
       233310   0.000668458
       233315   0.000668454
       233320    0.00066845
       233325   0.000668446
       233330   0.000668442
       233335   0.000668439
       233340   0.000668435
       233345   0.000668431
       233350   0.000668427
       233355   0.000668424
       233360    0.00066842
       233365   0.000668416
       233370   0.000668412
       233375   0.000668408
       233380   0.000668405
       233385   0.000668401
       233390   0.000668397
       233395   0.000668393
       233400    0.00066839
       233405   0.000668386
       233410   0.000668382
       233415   0.000668378
       233420   0.000668374
       233425   0.000668371
       233430   0.000668367
       233435   0.000668363
       233440   0.000668359
       233445   0.000668356
       233450   0.000668352
       233455   0.000668348
       233460   0.000668344
       233465    0.00066834
       233470   0.000668337
       233475   0.000668333
       233480   0.000668329
       233485   0.000668325
       233490   0.000668322
       233495   0.000668318
       233500   0.000668314
       233505    0.00066831
       233510   0.000668307
       233515   0.000668303
       233520   0.000668299
       233525   0.000668295
       233530   0.000668292
       233535   0.000668288
       233540   0.000668284
       233545    0.00066828
       233550   0.000668276
       233555   0.000668273
       233560   0.000668269
       233565   0.000668265
       233570   0.000668261
       233575   0.000668258
       233580   0.000668254
       233585    0.00066825
       233590   0.000668246
       233595   0.000668243
       233600   0.000668239
       233605   0.000668235
       233610   0.000668231
       233615   0.000668228
       233620   0.000668224
       233625    0.00066822
       233630   0.000668216
       233635   0.000668213
       233640   0.000668209
       233645   0.000668205
       233650   0.000668201
       233655   0.000668198
       233660   0.000668194
       233665    0.00066819
       233670   0.000668186
       233675   0.000668183
       233680   0.000668179
       233685   0.000668175
       233690   0.000668171
       233695   0.000668168
       233700   0.000668164
       233705    0.00066816
       233710   0.000668156
       233715   0.000668153
       233720   0.000668149
       233725   0.000668145
       233730   0.000668141
       233735   0.000668138
       233740   0.000668134
       233745    0.00066813
       233750   0.000668126
       233755   0.000668123
       233760   0.000668119
       233765   0.000668115
       233770   0.000668111
       233775   0.000668108
       233780   0.000668104
       233785     0.0006681
       233790   0.000668096
       233795   0.000668093
       233800   0.000668089
       233805   0.000668085
       233810   0.000668082
       233815   0.000668078
       233820   0.000668074
       233825    0.00066807
       233830   0.000668067
       233835   0.000668063
       233840   0.000668059
       233845   0.000668055
       233850   0.000668052
       233855   0.000668048
       233860   0.000668044
       233865    0.00066804
       233870   0.000668037
       233875   0.000668033
       233880   0.000668029
       233885   0.000668026
       233890   0.000668022
       233895   0.000668018
       233900   0.000668014
       233905   0.000668011
       233910   0.000668007
       233915   0.000668003
       233920   0.000667999
       233925   0.000667996
       233930   0.000667992
       233935   0.000667988
       233940   0.000667985
       233945   0.000667981
       233950   0.000667977
       233955   0.000667973
       233960    0.00066797
       233965   0.000667966
       233970   0.000667962
       233975   0.000667958
       233980   0.000667955
       233985   0.000667951
       233990   0.000667947
       233995   0.000667944
       234000    0.00066794
       234005   0.000667936
       234010   0.000667932
       234015   0.000667929
       234020   0.000667925
       234025   0.000667921
       234030   0.000667918
       234035   0.000667914
       234040    0.00066791
       234045   0.000667906
       234050   0.000667903
       234055   0.000667899
       234060   0.000667895
       234065   0.000667892
       234070   0.000667888
       234075   0.000667884
       234080    0.00066788
       234085   0.000667877
       234090   0.000667873
       234095   0.000667869
       234100   0.000667866
       234105   0.000667862
       234110   0.000667858
       234115   0.000667854
       234120   0.000667851
       234125   0.000667847
       234130   0.000667843
       234135    0.00066784
       234140   0.000667836
       234145   0.000667832
       234150   0.000667828
       234155   0.000667825
       234160   0.000667821
       234165   0.000667817
       234170   0.000667814
       234175    0.00066781
       234180   0.000667806
       234185   0.000667803
       234190   0.000667799
       234195   0.000667795
       234200   0.000667791
       234205   0.000667788
       234210   0.000667784
       234215    0.00066778
       234220   0.000667777
       234225   0.000667773
       234230   0.000667769
       234235   0.000667766
       234240   0.000667762
       234245   0.000667758
       234250   0.000667754
       234255   0.000667751
       234260   0.000667747
       234265   0.000667743
       234270    0.00066774
       234275   0.000667736
       234280   0.000667732
       234285   0.000667729
       234290   0.000667725
       234295   0.000667721
       234300   0.000667718
       234305   0.000667714
       234310    0.00066771
       234315   0.000667706
       234320   0.000667703
       234325   0.000667699
       234330   0.000667695
       234335   0.000667692
       234340   0.000667688
       234345   0.000667684
       234350   0.000667681
       234355   0.000667677
       234360   0.000667673
       234365    0.00066767
       234370   0.000667666
       234375   0.000667662
       234380   0.000667659
       234385   0.000667655
       234390   0.000667651
       234395   0.000667647
       234400   0.000667644
       234405    0.00066764
       234410   0.000667636
       234415   0.000667633
       234420   0.000667629
       234425   0.000667625
       234430   0.000667622
       234435   0.000667618
       234440   0.000667614
       234445   0.000667611
       234450   0.000667607
       234455   0.000667603
       234460     0.0006676
       234465   0.000667596
       234470   0.000667592
       234475   0.000667589
       234480   0.000667585
       234485   0.000667581
       234490   0.000667578
       234495   0.000667574
       234500    0.00066757
       234505   0.000667567
       234510   0.000667563
       234515   0.000667559
       234520   0.000667556
       234525   0.000667552
       234530   0.000667548
       234535   0.000667545
       234540   0.000667541
       234545   0.000667537
       234550   0.000667534
       234555    0.00066753
       234560   0.000667526
       234565   0.000667523
       234570   0.000667519
       234575   0.000667515
       234580   0.000667512
       234585   0.000667508
       234590   0.000667504
       234595   0.000667501
       234600   0.000667497
       234605   0.000667493
       234610    0.00066749
       234615   0.000667486
       234620   0.000667482
       234625   0.000667479
       234630   0.000667475
       234635   0.000667471
       234640   0.000667468
       234645   0.000667464
       234650    0.00066746
       234655   0.000667457
       234660   0.000667453
       234665   0.000667449
       234670   0.000667446
       234675   0.000667442
       234680   0.000667438
       234685   0.000667435
       234690   0.000667431
       234695   0.000667427
       234700   0.000667424
       234705    0.00066742
       234710   0.000667416
       234715   0.000667413
       234720   0.000667409
       234725   0.000667405
       234730   0.000667402
       234735   0.000667398
       234740   0.000667394
       234745   0.000667391
       234750   0.000667387
       234755   0.000667384
       234760    0.00066738
       234765   0.000667376
       234770   0.000667373
       234775   0.000667369
       234780   0.000667365
       234785   0.000667362
       234790   0.000667358
       234795   0.000667354
       234800   0.000667351
       234805   0.000667347
       234810   0.000667343
       234815    0.00066734
       234820   0.000667336
       234825   0.000667332
       234830   0.000667329
       234835   0.000667325
       234840   0.000667322
       234845   0.000667318
       234850   0.000667314
       234855   0.000667311
       234860   0.000667307
       234865   0.000667303
       234870     0.0006673
       234875   0.000667296
       234880   0.000667292
       234885   0.000667289
       234890   0.000667285
       234895   0.000667282
       234900   0.000667278
       234905   0.000667274
       234910   0.000667271
       234915   0.000667267
       234920   0.000667263
       234925    0.00066726
       234930   0.000667256
       234935   0.000667252
       234940   0.000667249
       234945   0.000667245
       234950   0.000667242
       234955   0.000667238
       234960   0.000667234
       234965   0.000667231
       234970   0.000667227
       234975   0.000667223
       234980    0.00066722
       234985   0.000667216
       234990   0.000667212
       234995   0.000667209
       235000   0.000667205
       235005   0.000667202
       235010   0.000667198
       235015   0.000667194
       235020   0.000667191
       235025   0.000667187
       235030   0.000667183
       235035    0.00066718
       235040   0.000667176
       235045   0.000667173
       235050   0.000667169
       235055   0.000667165
       235060   0.000667162
       235065   0.000667158
       235070   0.000667154
       235075   0.000667151
       235080   0.000667147
       235085   0.000667144
       235090    0.00066714
       235095   0.000667136
       235100   0.000667133
       235105   0.000667129
       235110   0.000667126
       235115   0.000667122
       235120   0.000667118
       235125   0.000667115
       235130   0.000667111
       235135   0.000667107
       235140   0.000667104
       235145     0.0006671
       235150   0.000667097
       235155   0.000667093
       235160   0.000667089
       235165   0.000667086
       235170   0.000667082
       235175   0.000667079
       235180   0.000667075
       235185   0.000667071
       235190   0.000667068
       235195   0.000667064
       235200    0.00066706
       235205   0.000667057
       235210   0.000667053
       235215    0.00066705
       235220   0.000667046
       235225   0.000667042
       235230   0.000667039
       235235   0.000667035
       235240   0.000667032
       235245   0.000667028
       235250   0.000667024
       235255   0.000667021
       235260   0.000667017
       235265   0.000667014
       235270    0.00066701
       235275   0.000667006
       235280   0.000667003
       235285   0.000666999
       235290   0.000666996
       235295   0.000666992
       235300   0.000666988
       235305   0.000666985
       235310   0.000666981
       235315   0.000666978
       235320   0.000666974
       235325    0.00066697
       235330   0.000666967
       235335   0.000666963
       235340    0.00066696