# Probe 0 (0.05 0.05 0.005)
#       Probe             0
#        Time
       230005   0.000671049
       230010   0.000671045
       230015   0.000671041
       230020   0.000671037
       230025   0.000671033
       230030   0.000671029
       230035   0.000671025
       230040   0.000671021
       230045   0.000671017
       230050   0.000671012
       230055   0.000671008
       230060   0.000671004
       230065      0.000671
       230070   0.000670996
       230075   0.000670992
       230080   0.000670988
       230085   0.000670984
       230090    0.00067098
       230095   0.000670975
       230100   0.000670971
       230105   0.000670967
       230110   0.000670963
       230115   0.000670959
       230120   0.000670955
       230125   0.000670951
       230130   0.000670947
       230135   0.000670943
       230140   0.000670938
       230145   0.000670934
       230150    0.00067093
       230155   0.000670926
       230160   0.000670922
       230165   0.000670918
       230170   0.000670914
       230175    0.00067091
       230180   0.000670906
       230185   0.000670902
       230190   0.000670898
       230195   0.000670893
       230200   0.000670889
       230205   0.000670885
       230210   0.000670881
       230215   0.000670877
       230220   0.000670873
       230225   0.000670869
       230230   0.000670865
       230235   0.000670861
       230240   0.000670857
       230245   0.000670852
       230250   0.000670848
       230255   0.000670844
       230260    0.00067084
       230265   0.000670836
       230270   0.000670832
       230275   0.000670828
       230280   0.000670824
       230285    0.00067082
       230290   0.000670816
       230295   0.000670812
       230300   0.000670808
       230305   0.000670803
       230310   0.000670799
       230315   0.000670795
       230320   0.000670791
       230325   0.000670787
       230330   0.000670783
       230335   0.000670779
       230340   0.000670775
       230345   0.000670771
       230350   0.000670767
       230355   0.000670763
       230360   0.000670759
       230365   0.000670754
       230370    0.00067075
       230375   0.000670746
       230380   0.000670742
       230385   0.000670738
       230390   0.000670734
       230395    0.00067073
       230400   0.000670726
       230405   0.000670722
       230410   0.000670718
       230415   0.000670714
       230420    0.00067071
       230425   0.000670706
       230430   0.000670702
       230435   0.000670697
       230440   0.000670693
       230445   0.000670689
       230450   0.000670685
       230455   0.000670681
       230460   0.000670677
       230465   0.000670673
       230470   0.000670669
       230475   0.000670665
       230480   0.000670661
       230485   0.000670657
       230490   0.000670653
       230495   0.000670649
       230500   0.000670645
       230505   0.000670641
       230510   0.000670636
       230515   0.000670632
       230520   0.000670628
       230525   0.000670624
       230530    0.00067062
       230535   0.000670616
       230540   0.000670612
       230545   0.000670608
       230550   0.000670604
       230555     0.0006706
       230560   0.000670596
       230565   0.000670592
       230570   0.000670588
       230575   0.000670584
       230580    0.00067058
       230585   0.000670576
       230590   0.000670572
       230595   0.000670567
       230600   0.000670563
       230605   0.000670559
       230610   0.000670555
       230615   0.000670551
       230620   0.000670547
       230625   0.000670543
       230630   0.000670539
       230635   0.000670535
       230640   0.000670531
       230645   0.000670527
       230650   0.000670523
       230655   0.000670519
       230660   0.000670515
       230665   0.000670511
       230670   0.000670507
       230675   0.000670503
       230680   0.000670499
       230685   0.000670495
       230690   0.000670491
       230695   0.000670487
       230700   0.000670482
       230705   0.000670478
       230710   0.000670474
       230715    0.00067047
       230720   0.000670466
       230725   0.000670462
       230730   0.000670458
       230735   0.000670454
       230740    0.00067045
       230745   0.000670446
       230750   0.000670442
       230755   0.000670438
       230760   0.000670434
       230765    0.00067043
       230770   0.000670426
       230775   0.000670422
       230780   0.000670418
       230785   0.000670414
       230790    0.00067041
       230795   0.000670406
       230800   0.000670402
       230805   0.000670398
       230810   0.000670394
       230815    0.00067039
       230820   0.000670386
       230825   0.000670382
       230830   0.000670378
       230835   0.000670374
       230840   0.000670369
       230845   0.000670365
       230850   0.000670361
       230855   0.000670357
       230860   0.000670353
       230865   0.000670349
       230870   0.000670345
       230875   0.000670341
       230880   0.000670337
       230885   0.000670333
       230890   0.000670329
       230895   0.000670325
       230900   0.000670321
       230905   0.000670317
       230910   0.000670313
       230915   0.000670309
       230920   0.000670305
       230925   0.000670301
       230930   0.000670297
       230935   0.000670293
       230940   0.000670289
       230945   0.000670285
       230950   0.000670281
       230955   0.000670277
       230960   0.000670273
       230965   0.000670269
       230970   0.000670265
       230975   0.000670261
       230980   0.000670257
       230985   0.000670253
       230990   0.000670249
       230995   0.000670245
       231000   0.000670241
       231005   0.000670237
       231010   0.000670233
       231015   0.000670229
       231020   0.000670225
       231025   0.000670221
       231030   0.000670217
       231035   0.000670213
       231040   0.000670209
       231045   0.000670205
       231050   0.000670201
       231055   0.000670197
       231060   0.000670193
       231065   0.000670189
       231070   0.000670185
       231075   0.000670181
       231080   0.000670177
       231085   0.000670173
       231090   0.000670169
       231095   0.000670165
       231100   0.000670161
       231105   0.000670157
       231110   0.000670153
       231115   0.000670149
       231120   0.000670145
       231125   0.000670141
       231130   0.000670137
       231135   0.000670133
       231140   0.000670129
       231145   0.000670125
       231150   0.000670121
       231155   0.000670117
       231160   0.000670113
       231165   0.000670109
       231170   0.000670105
       231175   0.000670101
       231180   0.000670097
       231185   0.000670093
       231190   0.000670089
       231195   0.000670085
       231200   0.000670081
       231205   0.000670077
       231210   0.000670073
       231215   0.000670069
       231220   0.000670065
       231225   0.000670061
       231230   0.000670057
       231235   0.000670053
       231240   0.000670049
       231245   0.000670045
       231250   0.000670041
       231255   0.000670037
       231260   0.000670033
       231265   0.000670029
       231270   0.000670025
       231275   0.000670021
       231280   0.000670017
       231285   0.000670013
       231290   0.000670009
       231295   0.000670005
       231300   0.000670001
       231305   0.000669997
       231310   0.000669993
       231315   0.000669989
       231320   0.000669985
       231325   0.000669981
       231330   0.000669977
       231335   0.000669973
       231340   0.000669969
       231345   0.000669965
       231350   0.000669961
       231355   0.000669957
       231360   0.000669953
       231365   0.000669949
       231370   0.000669945
       231375   0.000669941
       231380   0.000669937
       231385   0.000669933
       231390   0.000669929
       231395   0.000669926
       231400   0.000669922
       231405   0.000669918
       231410   0.000669914
       231415    0.00066991
       231420   0.000669906
       231425   0.000669902
       231430   0.000669898
       231435   0.000669894
       231440    0.00066989
       231445   0.000669886
       231450   0.000669882
       231455   0.000669878
       231460   0.000669874
       231465    0.00066987
       231470   0.000669866
       231475   0.000669862
       231480   0.000669858
       231485   0.000669854
       231490    0.00066985
       231495   0.000669846
       231500   0.000669842
       231505   0.000669838
       231510   0.000669834
       231515    0.00066983
       231520   0.000669826
       231525   0.000669822
       231530   0.000669818
       231535   0.000669815
       231540   0.000669811
       231545   0.000669807
       231550   0.000669803
       231555   0.000669799
       231560   0.000669795
       231565   0.000669791
       231570   0.000669787
       231575   0.000669783
       231580   0.000669779
       231585   0.000669775
       231590   0.000669771
       231595   0.000669767
       231600   0.000669763
       231605   0.000669759
       231610   0.000669755
       231615   0.000669751
       231620   0.000669747
       231625   0.000669743
       231630   0.000669739
       231635   0.000669735
       231640   0.000669732
       231645   0.000669728
       231650   0.000669724
       231655    0.00066972
       231660   0.000669716
       231665   0.000669712
       231670   0.000669708
       231675   0.000669704
       231680     0.0006697
       231685   0.000669696
       231690   0.000669692
       231695   0.000669688
       231700   0.000669684
       231705    0.00066968
       231710   0.000669676
       231715   0.000669672
       231720   0.000669668
       231725   0.000669664
       231730   0.000669661
       231735   0.000669657
       231740   0.000669653
       231745   0.000669649
       231750   0.000669645
       231755   0.000669641
       231760   0.000669637
       231765   0.000669633
       231770   0.000669629
       231775   0.000669625
       231780   0.000669621
       231785   0.000669617
       231790   0.000669613
       231795   0.000669609
       231800   0.000669605
       231805   0.000669602
       231810   0.000669598
       231815   0.000669594
       231820    0.00066959
       231825   0.000669586
       231830   0.000669582
       231835   0.000669578
       231840   0.000669574
       231845    0.00066957
       231850   0.000669566
       231855   0.000669562
       231860   0.000669558
       231865   0.000669554
       231870    0.00066955
       231875   0.000669547
       231880   0.000669543
       231885   0.000669539
       231890   0.000669535
       231895   0.000669531
       231900   0.000669527
       231905   0.000669523
       231910   0.000669519
       231915   0.000669515
       231920   0.000669511
       231925   0.000669507
       231930   0.000669503
       231935     0.0006695
       231940   0.000669496
       231945   0.000669492
       231950   0.000669488
       231955   0.000669484
       231960    0.00066948
       231965   0.000669476
       231970   0.000669472
       231975   0.000669468
       231980   0.000669464
       231985    0.00066946
       231990   0.000669456
       231995   0.000669453
       232000   0.000669449
       232005   0.000669445
       232010   0.000669441
       232015   0.000669437
       232020   0.000669433
       232025   0.000669429
       232030   0.000669425
       232035   0.000669421
       232040   0.000669417
       232045   0.000669413
       232050    0.00066941
       232055   0.000669406
       232060   0.000669402
       232065   0.000669398
       232070   0.000669394
       232075    0.00066939
       232080   0.000669386
       232085   0.000669382
       232090   0.000669378
       232095   0.000669374
       232100   0.000669371
       232105   0.000669367
       232110   0.000669363
       232115   0.000669359
       232120   0.000669355
       232125   0.000669351
       232130   0.000669347
       232135   0.000669343
       232140   0.000669339
       232145   0.000669335
       232150   0.000669332
       232155   0.000669328
       232160   0.000669324
       232165    0.00066932
       232170   0.000669316
       232175   0.000669312
       232180   0.000669308
       232185   0.000669304
       232190     0.0006693
       232195   0.000669296
       232200   0.000669293
       232205   0.000669289
       232210   0.000669285
       232215   0.000669281
       232220   0.000669277
       232225   0.000669273
       232230   0.000669269
       232235   0.000669265
       232240   0.000669261
       232245   0.000669258
       232250   0.000669254
       232255    0.00066925
       232260   0.000669246
       232265   0.000669242
       232270   0.000669238
       232275   0.000669234
       232280    0.00066923
       232285   0.000669227
       232290   0.000669223
       232295   0.000669219
       232300   0.000669215
       232305   0.000669211
       232310   0.000669207
       232315   0.000669203
       232320   0.000669199
       232325   0.000669195
       232330   0.000669192
       232335   0.000669188
       232340   0.000669184
       232345    0.00066918
       232350   0.000669176
       232355   0.000669172
       232360   0.000669168
       232365   0.000669164
       232370   0.000669161
       232375   0.000669157
       232380   0.000669153
       232385   0.000669149
       232390   0.000669145
       232395   0.000669141
       232400   0.000669137
       232405   0.000669133
       232410    0.00066913
       232415   0.000669126
       232420   0.000669122
       232425   0.000669118
       232430   0.000669114
       232435    0.00066911
       232440   0.000669106
       232445   0.000669103
       232450   0.000669099
       232455   0.000669095
       232460   0.000669091
       232465   0.000669087
       232470   0.000669083
       232475   0.000669079
       232480   0.000669075
       232485   0.000669072
       232490   0.000669068
       232495   0.000669064
       232500    0.00066906
       232505   0.000669056
       232510   0.000669052
       232515   0.000669048
       232520   0.000669045
       232525   0.000669041
       232530   0.000669037
       232535   0.000669033
       232540   0.000669029
       232545   0.000669025
       232550   0.000669021
       232555   0.000669018
       232560   0.000669014
       232565    0.00066901
       232570   0.000669006
       232575   0.000669002
       232580   0.000668998
       232585   0.000668994
       232590   0.000668991
       232595   0.000668987
       232600   0.000668983
       232605   0.000668979
       232610   0.000668975
       232615   0.000668971
       232620   0.000668967
       232625   0.000668964
       232630    0.00066896
       232635   0.000668956
       232640   0.000668952
       232645   0.000668948
       232650   0.000668944
       232655   0.000668941
       232660   0.000668937
       232665   0.000668933
       232670   0.000668929
       232675   0.000668925
       232680   0.000668921
       232685   0.000668917
       232690   0.000668914
       232695    0.00066891
       232700   0.000668906
       232705   0.000668902
       232710   0.000668898
       232715   0.000668894
       232720   0.000668891
       232725   0.000668887
       232730   0.000668883
       232735   0.000668879
       232740   0.000668875
       232745   0.000668871
       232750   0.000668867
       232755   0.000668864
       232760    0.00066886
       232765   0.000668856
       232770   0.000668852
       232775   0.000668848
       232780   0.000668844
       232785   0.000668841
       232790   0.000668837
       232795   0.000668833
       232800   0.000668829
       232805   0.000668825
       232810   0.000668821
       232815   0.000668818
       232820   0.000668814
       232825    0.00066881
       232830   0.000668806
       232835   0.000668802
       232840   0.000668798
       232845   0.000668795
       232850   0.000668791
       232855   0.000668787
       232860   0.000668783
       232865   0.000668779
       232870   0.000668776
       232875   0.000668772
       232880   0.000668768
       232885   0.000668764
       232890    0.00066876
       232895   0.000668756
       232900   0.000668753
       232905   0.000668749
       232910   0.000668745
       232915   0.000668741
       232920   0.000668737
       232925   0.000668733
       232930    0.00066873
       232935   0.000668726
       232940   0.000668722
       232945   0.000668718
       232950   0.000668714
       232955   0.000668711
       232960   0.000668707
       232965   0.000668703
       232970   0.000668699
       232975   0.000668695
       232980   0.000668691
       232985   0.000668688
       232990   0.000668684
       232995    0.00066868
       233000   0.000668676
       233005   0.000668672
       233010   0.000668669
       233015   0.000668665
       233020   0.000668661
       233025   0.000668657
       233030   0.000668653
       233035    0.00066865
       233040   0.000668646
       233045   0.000668642
       233050   0.000668638
       233055   0.000668634
       233060    0.00066863
       233065   0.000668627
       233070   0.000668623
       233075   0.000668619
       233080   0.000668615
       233085   0.000668611
       233090   0.000668608
       233095   0.000668604
       233100     0.0006686
       233105   0.000668596
       233110   0.000668592
       233115   0.000668589
       233120   0.000668585
       233125   0.000668581
       233130   0.000668577
       233135   0.000668573
       233140    0.00066857
       233145   0.000668566
       233150   0.000668562
       233155   0.000668558
       233160   0.000668554
       233165   0.000668551
       233170   0.000668547
       233175   0.000668543
       233180   0.000668539
       233185   0.000668535
       233190   0.000668532
       233195   0.000668528
       233200   0.000668524
       233205    0.00066852
       233210   0.000668516
       233215   0.000668513
       233220   0.000668509
       233225   0.000668505
       233230   0.000668501
       233235   0.000668498
       233240   0.000668494
       233245    0.00066849
       233250   0.000668486
       233255   0.000668482
       233260   0.000668479
       233265   0.000668475
       233270   0.000668471
       233275   0.000668467
       233280   0.000668463
       233285    0.00066846
       233290   0.000668456
       233295   0.000668452
       233300   0.000668448
       233305   0.000668444
       233310   0.000668441
       233315   0.000668437
       233320   0.000668433
       233325   0.000668429
       233330   0.000668426
       233335   0.000668422
       233340   0.000668418
       233345   0.000668414
       233350    0.00066841
       233355   0.000668407
       233360   0.000668403
       233365   0.000668399
       233370   0.000668395
       233375   0.000668392
       233380   0.000668388
       233385   0.000668384
       233390    0.00066838
       233395   0.000668376
       233400   0.000668373
       233405   0.000668369
       233410   0.000668365
       233415   0.000668361
       233420   0.000668358
       233425   0.000668354
       233430    0.00066835
       233435   0.000668346
       233440   0.000668342
       233445   0.000668339
       233450   0.000668335
       233455   0.000668331
       233460   0.000668327
       233465   0.000668324
       233470    0.00066832
       233475   0.000668316
       233480   0.000668312
       233485   0.000668309
       233490   0.000668305
       233495   0.000668301
       233500   0.000668297
       233505   0.000668293
       233510    0.00066829
       233515   0.000668286
       233520   0.000668282
       233525   0.000668278
       233530   0.000668275
       233535   0.000668271
       233540   0.000668267
       233545   0.000668263
       233550    0.00066826
       233555   0.000668256
       233560   0.000668252
       233565   0.000668248
       233570   0.000668245
       233575   0.000668241
       233580   0.000668237
       233585   0.000668233
       233590    0.00066823
       233595   0.000668226
       233600   0.000668222
       233605   0.000668218
       233610   0.000668215
       233615   0.000668211
       233620   0.000668207
       233625   0.000668203
       233630   0.000668199
       233635   0.000668196
       233640   0.000668192
       233645   0.000668188
       233650   0.000668184
       233655   0.000668181
       233660   0.000668177
       233665   0.000668173
       233670   0.000668169
       233675   0.000668166
       233680   0.000668162
       233685   0.000668158
       233690   0.000668154
       233695   0.000668151
       233700   0.000668147
       233705   0.000668143
       233710   0.000668139
       233715   0.000668136
       233720   0.000668132
       233725   0.000668128
       233730   0.000668125
       233735   0.000668121
       233740   0.000668117
       233745   0.000668113
       233750    0.00066811
       233755   0.000668106
       233760   0.000668102
       233765   0.000668098
       233770   0.000668095
       233775   0.000668091
       233780   0.000668087
       233785   0.000668083
       233790    0.00066808
       233795   0.000668076
       233800   0.000668072
       233805   0.000668068
       233810   0.000668065
       233815   0.000668061
       233820   0.000668057
       233825   0.000668053
       233830    0.00066805
       233835   0.000668046
       233840   0.000668042
       233845   0.000668039
       233850   0.000668035
       233855   0.000668031
       233860   0.000668027
       233865   0.000668024
       233870    0.00066802
       233875   0.000668016
       233880   0.000668012
       233885   0.000668009
       233890   0.000668005
       233895   0.000668001
       233900   0.000667997
       233905   0.000667994
       233910    0.00066799
       233915   0.000667986
       233920   0.000667983
       233925   0.000667979
       233930   0.000667975
       233935   0.000667971
       233940   0.000667968
       233945   0.000667964
       233950    0.00066796
       233955   0.000667956
       233960   0.000667953
       233965   0.000667949
       233970   0.000667945
       233975   0.000667942
       233980   0.000667938
       233985   0.000667934
       233990    0.00066793
       233995   0.000667927
       234000   0.000667923
       234005   0.000667919
       234010   0.000667916
       234015   0.000667912
       234020   0.000667908
       234025   0.000667904
       234030   0.000667901
       234035   0.000667897
       234040   0.000667893
       234045    0.00066789
       234050   0.000667886
       234055   0.000667882
       234060   0.000667878
       234065   0.000667875
       234070   0.000667871
       234075   0.000667867
       234080   0.000667864
       234085    0.00066786
       234090   0.000667856
       234095   0.000667852
       234100   0.000667849
       234105   0.000667845
       234110   0.000667841
       234115   0.000667838
       234120   0.000667834
       234125    0.00066783
       234130   0.000667826
       234135   0.000667823
       234140   0.000667819
       234145   0.000667815
       234150   0.000667812
       234155   0.000667808
       234160   0.000667804
       234165   0.000667801
       234170   0.000667797
       234175   0.000667793
       234180   0.000667789
       234185   0.000667786
       234190   0.000667782
       234195   0.000667778
       234200   0.000667775
       234205   0.000667771
       234210   0.000667767
       234215   0.000667763
       234220    0.00066776
       234225   0.000667756
       234230   0.000667752
       234235   0.000667749
       234240   0.000667745
       234245   0.000667741
       234250   0.000667738
       234255   0.000667734
       234260    0.00066773
       234265   0.000667727
       234270   0.000667723
       234275   0.000667719
       234280   0.000667715
       234285   0.000667712
       234290   0.000667708
       234295   0.000667704
       234300   0.000667701
       234305   0.000667697
       234310   0.000667693
       234315    0.00066769
       234320   0.000667686
       234325   0.000667682
       234330   0.000667679
       234335   0.000667675
       234340   0.000667671
       234345   0.000667667
       234350   0.000667664
       234355    0.00066766
       234360   0.000667656
       234365   0.000667653
       234370   0.000667649
       234375   0.000667645
       234380   0.000667642
       234385   0.000667638
       234390   0.000667634
       234395   0.000667631
       234400   0.000667627
       234405   0.000667623
       234410    0.00066762
       234415   0.000667616
       234420   0.000667612
       234425   0.000667609
       234430   0.000667605
       234435   0.000667601
       234440   0.000667597
       234445   0.000667594
       234450    0.00066759
       234455   0.000667586
       234460   0.000667583
       234465   0.000667579
       234470   0.000667575
       234475   0.000667572
       234480   0.000667568
       234485   0.000667564
       234490   0.000667561
       234495   0.000667557
       234500   0.000667553
       234505    0.00066755
       234510   0.000667546
       234515   0.000667542
       234520   0.000667539
       234525   0.000667535
       234530   0.000667531
       234535   0.000667528
       234540   0.000667524
       234545    0.00066752
       234550   0.000667517
       234555   0.000667513
       234560   0.000667509
       234565   0.000667506
       234570   0.000667502
       234575   0.000667498
       234580   0.000667495
       234585   0.000667491
       234590   0.000667487
       234595   0.000667484
       234600    0.00066748
       234605   0.000667476
       234610   0.000667473
       234615   0.000667469
       234620   0.000667465
       234625   0.000667462
       234630   0.000667458
       234635   0.000667454
       234640   0.000667451
       234645   0.000667447
       234650   0.000667443
       234655    0.00066744
       234660   0.000667436
       234665   0.000667432
       234670   0.000667429
       234675   0.000667425
       234680   0.000667421
       234685   0.000667418
       234690   0.000667414
       234695    0.00066741
       234700   0.000667407
       234705   0.000667403
       234710     0.0006674
       234715   0.000667396
       234720   0.000667392
       234725   0.000667389
       234730   0.000667385
       234735   0.000667381
       234740   0.000667378
       234745   0.000667374
       234750    0.00066737
       234755   0.000667367
       234760   0.000667363
       234765   0.000667359
       234770   0.000667356
       234775   0.000667352
       234780   0.000667348
       234785   0.000667345
       234790   0.000667341
       234795   0.000667337
       234800   0.000667334
       234805    0.00066733
       234810   0.000667327
       234815   0.000667323
       234820   0.000667319
       234825   0.000667316
       234830   0.000667312
       234835   0.000667308
       234840   0.000667305
       234845   0.000667301
       234850   0.000667297
       234855   0.000667294
       234860    0.00066729
       234865   0.000667286
       234870   0.000667283
       234875   0.000667279
       234880   0.000667276
       234885   0.000667272
       234890   0.000667268
       234895   0.000667265
       234900   0.000667261
       234905   0.000667257
       234910   0.000667254
       234915    0.00066725
       234920   0.000667246
       234925   0.000667243
       234930   0.000667239
       234935   0.000667236
       234940   0.000667232
       234945   0.000667228
       234950   0.000667225
       234955   0.000667221
       234960   0.000667217
       234965   0.000667214
       234970    0.00066721
       234975   0.000667207
       234980   0.000667203
       234985   0.000667199
       234990   0.000667196
       234995   0.000667192
       235000   0.000667188
       235005   0.000667185
       235010   0.000667181
       235015   0.000667177
       235020   0.000667174
       235025    0.00066717
       235030   0.000667167
       235035   0.000667163
       235040   0.000667159
       235045   0.000667156
       235050   0.000667152
       235055   0.000667148
       235060   0.000667145
       235065   0.000667141
       235070   0.000667138
       235075   0.000667134
       235080    0.00066713
       235085   0.000667127
       235090   0.000667123
       235095    0.00066712
       235100   0.000667116
       235105   0.000667112
       235110   0.000667109
       235115   0.000667105
       235120   0.000667101
       235125   0.000667098
       235130   0.000667094
       235135   0.000667091
       235140   0.000667087
       235145   0.000667083
       235150    0.00066708
       235155   0.000667076
       235160   0.000667073
       235165   0.000667069
       235170   0.000667065
       235175   0.000667062
       235180   0.000667058
       235185   0.000667054
       235190   0.000667051
       235195   0.000667047
       235200   0.000667044
       235205    0.00066704
       235210   0.000667036
       235215   0.000667033
       235220   0.000667029
       235225   0.000667026
       235230   0.000667022
       235235   0.000667018
       235240   0.000667015
       235245   0.000667011
       235250   0.000667008
       235255   0.000667004
       235260      0.000667
       235265   0.000666997
       235270   0.000666993
       235275    0.00066699
       235280   0.000666986
       235285   0.000666982
       235290   0.000666979
       235295   0.000666975
       235300   0.000666972
       235305   0.000666968
       235310   0.000666964
       235315   0.000666961
       235320   0.000666957
       235325   0.000666954
       235330    0.00066695
       235335   0.000666946
       235340   0.000666943