# Probe 0 (0.05 0.05 0.005)
#       Probe             0
#        Time
       230005   8.35194e-79
       230010   8.05111e-79
       230015   7.76107e-79
       230020   7.48144e-79
       230025   7.21184e-79
       230030   6.95191e-79
       230035   6.70132e-79
       230040   6.45972e-79
       230045   6.22679e-79
       230050   6.00223e-79
       230055   5.78574e-79
       230060   5.57702e-79
       230065   5.37579e-79
       230070    5.1818e-79
       230075   4.99478e-79
       230080   4.81448e-79
       230085   4.64067e-79
       230090    4.4731e-79
       230095   4.31156e-79
       230100   4.15583e-79
       230105    4.0057e-79
       230110   3.86097e-79
       230115   3.72145e-79
       230120   3.58695e-79
       230125   3.45729e-79
       230130   3.33229e-79
       230135    3.2118e-79
       230140   3.09565e-79
       230145   2.98368e-79
       230150   2.87574e-79
       230155    2.7717e-79
       230160    2.6714e-79
       230165   2.57471e-79
       230170   2.48151e-79
       230175   2.39167e-79
       230180   2.30507e-79
       230185    2.2216e-79
       230190   2.14113e-79
       230195   2.06356e-79
       230200    1.9888e-79
       230205   1.91673e-79
       230210   1.84726e-79
       230215    1.7803e-79
       230220   1.71576e-79
       230225   1.65354e-79
       230230   1.59358e-79
       230235   1.53578e-79
       230240   1.48007e-79
       230245   1.42637e-79
       230250   1.37461e-79
       230255   1.32472e-79
       230260   1.27663e-79
       230265   1.23028e-79
       230270   1.18561e-79
       230275   1.14256e-79
       230280   1.10106e-79
       230285   1.06106e-79
       230290   1.02251e-79
       230295   9.85351e-80
       230300   9.49539e-80
       230305   9.15024e-80
       230310   8.81758e-80
       230315   8.49697e-80
       230320   8.18796e-80
       230325   7.89015e-80
       230330   7.60313e-80
       230335    7.3265e-80
       230340    7.0599e-80
       230345   6.80295e-80
       230350   6.55533e-80
       230355   6.31667e-80
       230360   6.08668e-80
       230365   5.86502e-80
       230370    5.6514e-80
       230375   5.44553e-80
       230380   5.24713e-80
       230385   5.05592e-80
       230390   4.87166e-80
       230395   4.69408e-80
       230400   4.52295e-80
       230405   4.35804e-80
       230410   4.19911e-80
       230415   4.04595e-80
       230420   3.89836e-80
       230425   3.75613e-80
       230430   3.61907e-80
       230435   3.48699e-80
       230440   3.35971e-80
       230445   3.23705e-80
       230450   3.11886e-80
       230455   3.00496e-80
       230460   2.89521e-80
       230465   2.78945e-80
       230470   2.68754e-80
       230475   2.58933e-80
       230480    2.4947e-80
       230485   2.40351e-80
       230490   2.31564e-80
       230495   2.23098e-80
       230500   2.14939e-80
       230505   2.07078e-80
       230510   1.99503e-80
       230515   1.92204e-80
       230520   1.85171e-80
       230525   1.78394e-80
       230530   1.71864e-80
       230535   1.65572e-80
       230540    1.5951e-80
       230545   1.53669e-80
       230550    1.4804e-80
       230555   1.42618e-80
       230560   1.37392e-80
       230565   1.32358e-80
       230570   1.27507e-80
       230575   1.22834e-80
       230580   1.18331e-80
       230585   1.13992e-80
       230590   1.09812e-80
       230595   1.05784e-80
       230600   1.01904e-80
       230605   9.81652e-81
       230610   9.45632e-81
       230615   9.10927e-81
       230620   8.77492e-81
       230625   8.45279e-81
       230630   8.14243e-81
       230635   7.84342e-81
       230640   7.55535e-81
       230645   7.27782e-81
       230650   7.01044e-81
       230655   6.75285e-81
       230660   6.50468e-81
       230665   6.26559e-81
       230670   6.03526e-81
       230675   5.81336e-81
       230680   5.59958e-81
       230685   5.39364e-81
       230690   5.19524e-81
       230695    5.0041e-81
       230700   4.81997e-81
       230705   4.64259e-81
       230710   4.47171e-81
       230715    4.3071e-81
       230720   4.14852e-81
       230725   3.99575e-81
       230730   3.84859e-81
       230735   3.70682e-81
       230740   3.57026e-81
       230745   3.43871e-81
       230750   3.31198e-81
       230755   3.18991e-81
       230760   3.07232e-81
       230765   2.95904e-81
       230770   2.84993e-81
       230775   2.74482e-81
       230780   2.64357e-81
       230785   2.54604e-81
       230790    2.4521e-81
       230795   2.36161e-81
       230800   2.27444e-81
       230805   2.19048e-81
       230810   2.10961e-81
       230815   2.03171e-81
       230820   1.95667e-81
       230825    1.8844e-81
       230830   1.81478e-81
       230835   1.74773e-81
       230840   1.68314e-81
       230845   1.62093e-81
       230850   1.56101e-81
       230855    1.5033e-81
       230860   1.44771e-81
       230865   1.39417e-81
       230870    1.3426e-81
       230875   1.29293e-81
       230880   1.24509e-81
       230885   1.19901e-81
       230890   1.15464e-81
       230895   1.11189e-81
       230900   1.07073e-81
       230905   1.03108e-81
       230910   9.92895e-82
       230915   9.56118e-82
       230920   9.20698e-82
       230925   8.86584e-82
       230930    8.5373e-82
       230935   8.22088e-82
       230940   7.91614e-82
       230945   7.62265e-82
       230950      7.34e-82
       230955   7.06779e-82
       230960   6.80563e-82
       230965   6.55316e-82
       230970   6.31002e-82
       230975   6.07586e-82
       230980   5.85036e-82
       230985   5.63319e-82
       230990   5.42405e-82
       230995   5.22265e-82
       231000   5.02869e-82
       231005   4.84191e-82
       231010   4.66204e-82
       231015   4.48882e-82
       231020   4.32202e-82
       231025   4.16139e-82
       231030    4.0067e-82
       231035   3.85774e-82
       231040    3.7143e-82
       231045   3.57617e-82
       231050   3.44315e-82
       231055   3.31507e-82
       231060   3.19173e-82
       231065   3.07296e-82
       231070   2.95859e-82
       231075   2.84846e-82
       231080   2.74241e-82
       231085    2.6403e-82
       231090   2.54198e-82
       231095    2.4473e-82
       231100   2.35613e-82
       231105   2.26835e-82
       231110   2.18382e-82
       231115   2.10243e-82
       231120   2.02406e-82
       231125   1.94861e-82
       231130   1.87595e-82
       231135   1.80599e-82
       231140   1.73863e-82
       231145   1.67377e-82
       231150   1.61133e-82
       231155    1.5512e-82
       231160   1.49331e-82
       231165   1.43757e-82
       231170    1.3839e-82
       231175   1.33223e-82
       231180   1.28248e-82
       231185   1.23458e-82
       231190   1.18846e-82
       231195   1.14406e-82
       231200   1.10131e-82
       231205   1.06015e-82
       231210   1.02052e-82
       231215   9.82374e-83
       231220   9.45643e-83
       231225    9.1028e-83
       231230   8.76235e-83
       231235   8.43458e-83
       231240   8.11902e-83
       231245   7.81522e-83
       231250   7.52274e-83
       231255   7.24117e-83
       231260   6.97009e-83
       231265   6.70912e-83
       231270   6.45788e-83
       231275   6.21601e-83
       231280   5.98317e-83
       231285   5.75902e-83
       231290   5.54322e-83
       231295   5.33549e-83
       231300    5.1355e-83
       231305   4.94299e-83
       231310   4.75766e-83
       231315   4.57925e-83
       231320   4.40751e-83
       231325   4.24218e-83
       231330   4.08303e-83
       231335   3.92983e-83
       231340   3.78235e-83
       231345   3.64039e-83
       231350   3.50373e-83
       231355   3.37218e-83
       231360   3.24555e-83
       231365   3.12366e-83
       231370   3.00633e-83
       231375   2.89339e-83
       231380   2.78467e-83
       231385   2.68002e-83
       231390   2.57929e-83
       231395   2.48234e-83
       231400   2.38901e-83
       231405   2.29917e-83
       231410   2.21271e-83
       231415   2.12948e-83
       231420   2.04937e-83
       231425   1.97226e-83
       231430   1.89804e-83
       231435    1.8266e-83
       231440   1.75784e-83
       231445   1.69166e-83
       231450   1.62796e-83
       231455   1.56665e-83
       231460   1.50764e-83
       231465   1.45085e-83
       231470   1.39618e-83
       231475   1.34357e-83
       231480   1.29293e-83
       231485   1.24419e-83
       231490   1.19729e-83
       231495   1.15214e-83
       231500   1.10869e-83
       231505   1.06687e-83
       231510   1.02663e-83
       231515   9.87891e-84
       231520   9.50612e-84
       231525   9.14734e-84
       231530   8.80206e-84
       231535   8.46975e-84
       231540   8.14995e-84
       231545   7.84217e-84
       231550   7.54596e-84
       231555   7.26091e-84
       231560   6.98657e-84
       231565   6.72257e-84
       231570    6.4685e-84
       231575   6.22399e-84
       231580   5.98869e-84
       231585   5.76226e-84
       231590   5.54435e-84
       231595   5.33464e-84
       231600   5.13284e-84
       231605   4.93865e-84
       231610   4.75177e-84
       231615   4.57193e-84
       231620   4.39888e-84
       231625   4.23235e-84
       231630    4.0721e-84
       231635   3.91789e-84
       231640    3.7695e-84
       231645   3.62671e-84
       231650   3.48931e-84
       231655   3.35709e-84
       231660   3.22986e-84
       231665   3.10744e-84
       231670   2.98964e-84
       231675   2.87629e-84
       231680   2.76721e-84
       231685   2.66226e-84
       231690   2.56127e-84
       231695    2.4641e-84
       231700    2.3706e-84
       231705   2.28064e-84
       231710   2.19407e-84
       231715   2.11078e-84
       231720   2.03064e-84
       231725   1.95353e-84
       231730   1.87934e-84
       231735   1.80795e-84
       231740   1.73926e-84
       231745   1.67318e-84
       231750   1.60959e-84
       231755   1.54841e-84
       231760   1.48955e-84
       231765   1.43292e-84
       231770   1.37843e-84
       231775   1.32601e-84
       231780   1.27557e-84
       231785   1.22704e-84
       231790   1.18035e-84
       231795   1.13544e-84
       231800   1.09222e-84
       231805   1.05064e-84
       231810   1.01064e-84
       231815   9.72158e-85
       231820   9.35134e-85
       231825   8.99515e-85
       231830   8.65247e-85
       231835    8.3228e-85
       231840   8.00564e-85
       231845   7.70051e-85
       231850   7.40698e-85
       231855   7.12459e-85
       231860   6.85292e-85
       231865   6.59157e-85
       231870   6.34015e-85
       231875   6.09828e-85
       231880   5.86561e-85
       231885   5.64178e-85
       231890   5.42645e-85
       231895   5.21932e-85
       231900   5.02006e-85
       231905   4.82837e-85
       231910   4.64398e-85
       231915    4.4666e-85
       231920   4.29598e-85
       231925   4.13184e-85
       231930   3.97395e-85
       231935   3.82207e-85
       231940   3.67598e-85
       231945   3.53544e-85
       231950   3.40026e-85
       231955   3.27023e-85
       231960   3.14515e-85
       231965   3.02484e-85
       231970   2.90911e-85
       231975   2.79779e-85
       231980   2.69072e-85
       231985   2.58772e-85
       231990   2.48866e-85
       231995   2.39337e-85
       232000   2.30172e-85
       232005   2.21356e-85
       232010   2.12877e-85
       232015   2.04721e-85
       232020   1.96877e-85
       232025   1.89331e-85
       232030   1.82074e-85
       232035   1.75095e-85
       232040   1.68381e-85
       232045   1.61924e-85
       232050   1.55714e-85
       232055   1.49741e-85
       232060   1.43996e-85
       232065   1.38471e-85
       232070   1.33157e-85
       232075   1.28046e-85
       232080    1.2313e-85
       232085   1.18403e-85
       232090   1.13856e-85
       232095   1.09484e-85
       232100   1.05278e-85
       232105   1.01234e-85
       232110   9.73438e-86
       232115   9.36029e-86
       232120   9.00053e-86
       232125   8.65453e-86
       232130   8.32179e-86
       232135    8.0018e-86
       232140   7.69406e-86
       232145   7.39811e-86
       232150    7.1135e-86
       232155    6.8398e-86
       232160   6.57659e-86
       232165   6.32347e-86
       232170   6.08005e-86
       232175   5.84597e-86
       232180   5.62086e-86
       232185    5.4044e-86
       232190   5.19623e-86
       232195   4.99605e-86
       232200   4.80356e-86
       232205   4.61845e-86
       232210   4.44045e-86
       232215   4.26929e-86
       232220   4.10469e-86
       232225   3.94642e-86
       232230   3.79423e-86
       232235   3.64788e-86
       232240   3.50716e-86
       232245   3.37185e-86
       232250   3.24173e-86
       232255   3.11662e-86
       232260   2.99632e-86
       232265   2.88065e-86
       232270   2.76942e-86
       232275   2.66247e-86
       232280   2.55964e-86
       232285   2.46076e-86
       232290   2.36569e-86
       232295   2.27427e-86
       232300   2.18638e-86
       232305   2.10187e-86
       232310   2.02061e-86
       232315   1.94249e-86
       232320   1.86737e-86
       232325   1.79515e-86
       232330    1.7257e-86
       232335   1.65894e-86
       232340   1.59475e-86
       232345   1.53303e-86
       232350   1.47369e-86
       232355   1.41664e-86
       232360   1.36179e-86
       232365   1.30906e-86
       232370   1.25836e-86
       232375   1.20962e-86
       232380   1.16275e-86
       232385    1.1177e-86
       232390   1.07439e-86
       232395   1.03274e-86
       232400   9.92709e-87
       232405   9.54221e-87
       232410   9.17219e-87
       232415   8.81646e-87
       232420   8.47448e-87
       232425   8.14572e-87
       232430   7.82966e-87
       232435   7.52581e-87
       232440   7.23372e-87
       232445   6.95292e-87
       232450   6.68297e-87
       232455   6.42347e-87
       232460   6.17401e-87
       232465    5.9342e-87
       232470   5.70366e-87
       232475   5.48205e-87
       232480   5.26902e-87
       232485   5.06424e-87
       232490   4.86738e-87
       232495   4.67815e-87
       232500   4.49625e-87
       232505   4.32139e-87
       232510   4.15331e-87
       232515   3.99174e-87
       232520   3.83643e-87
       232525   3.68714e-87
       232530   3.54364e-87
       232535    3.4057e-87
       232540   3.27312e-87
       232545   3.14567e-87
       232550   3.02317e-87
       232555   2.90542e-87
       232560   2.79224e-87
       232565   2.68345e-87
       232570   2.57889e-87
       232575   2.47838e-87
       232580   2.38178e-87
       232585   2.28893e-87
       232590   2.19968e-87
       232595    2.1139e-87
       232600   2.03145e-87
       232605   1.95221e-87
       232610   1.87605e-87
       232615   1.80284e-87
       232620   1.73249e-87
       232625   1.66486e-87
       232630   1.59987e-87
       232635   1.53741e-87
       232640   1.47737e-87
       232645   1.41967e-87
       232650   1.36422e-87
       232655   1.31092e-87
       232660    1.2597e-87
       232665   1.21047e-87
       232670   1.16316e-87
       232675   1.11769e-87
       232680   1.07399e-87
       232685   1.03199e-87
       232690   9.91631e-88
       232695   9.52843e-88
       232700   9.15567e-88
       232705   8.79743e-88
       232710   8.45316e-88
       232715   8.12231e-88
       232720   7.80436e-88
       232725   7.49882e-88
       232730   7.20519e-88
       232735   6.92301e-88
       232740   6.65184e-88
       232745   6.39126e-88
       232750   6.14084e-88
       232755    5.9002e-88
       232760   5.66896e-88
       232765   5.44674e-88
       232770   5.23321e-88
       232775   5.02801e-88
       232780   4.83083e-88
       232785   4.64135e-88
       232790   4.45928e-88
       232795   4.28432e-88
       232800    4.1162e-88
       232805   3.95466e-88
       232810   3.79943e-88
       232815   3.65027e-88
       232820   3.50694e-88
       232825   3.36922e-88
       232830   3.23689e-88
       232835   3.10974e-88
       232840   2.98756e-88
       232845   2.87017e-88
       232850   2.75737e-88
       232855   2.64899e-88
       232860   2.54485e-88
       232865   2.44479e-88
       232870   2.34865e-88
       232875   2.25628e-88
       232880   2.16753e-88
       232885   2.08225e-88
       232890   2.00032e-88
       232895    1.9216e-88
       232900   1.84597e-88
       232905    1.7733e-88
       232910   1.70348e-88
       232915    1.6364e-88
       232920   1.57195e-88
       232925   1.51003e-88
       232930   1.45055e-88
       232935   1.39339e-88
       232940   1.33848e-88
       232945   1.28573e-88
       232950   1.23504e-88
       232955   1.18635e-88
       232960   1.13957e-88
       232965   1.09463e-88
       232970   1.05145e-88
       232975   1.00997e-88
       232980   9.70123e-89
       232985   9.31841e-89
       232990   8.95063e-89
       232995   8.59731e-89
       233000   8.25789e-89
       233005   7.93183e-89
       233010   7.61858e-89
       233015   7.31767e-89
       233020   7.02859e-89
       233025   6.75089e-89
       233030   6.48413e-89
       233035   6.22786e-89
       233040   5.98169e-89
       233045   5.74521e-89
       233050   5.51805e-89
       233055   5.29983e-89
       233060   5.09022e-89
       233065   4.88886e-89
       233070   4.69544e-89
       233075   4.50964e-89
       233080   4.33117e-89
       233085   4.15973e-89
       233090   3.99506e-89
       233095   3.83688e-89
       233100   3.68494e-89
       233105   3.53899e-89
       233110   3.39881e-89
       233115   3.26415e-89
       233120   3.13481e-89
       233125   3.01058e-89
       233130   2.89126e-89
       233135   2.77664e-89
       233140   2.66655e-89
       233145   2.56081e-89
       233150   2.45925e-89
       233155    2.3617e-89
       233160   2.26801e-89
       233165   2.17802e-89
       233170   2.09159e-89
       233175   2.00857e-89
       233180   1.92884e-89
       233185   1.85226e-89
       233190   1.77871e-89
       233195   1.70807e-89
       233200   1.64023e-89
       233205   1.57507e-89
       233210   1.51248e-89
       233215   1.45238e-89
       233220   1.39466e-89
       233225   1.33922e-89
       233230   1.28598e-89
       233235   1.23484e-89
       233240   1.18574e-89
       233245   1.13857e-89
       233250   1.09328e-89
       233255   1.04978e-89
       233260   1.00801e-89
       233265   9.67892e-90
       233270   9.29365e-90
       233275   8.92367e-90
       233280   8.56836e-90
       233285   8.22714e-90
       233290   7.89946e-90
       233295   7.58479e-90
       233300   7.28261e-90
       233305   6.99242e-90
       233310   6.71375e-90
       233315   6.44615e-90
       233320   6.18917e-90
       233325    5.9424e-90
       233330   5.70544e-90
       233335   5.47789e-90
       233340   5.25938e-90
       233345   5.04955e-90
       233350   4.84807e-90
       233355    4.6546e-90
       233360   4.46882e-90
       233365   4.29042e-90
       233370   4.11913e-90
       233375   3.95464e-90
       233380   3.79671e-90
       233385   3.64505e-90
       233390   3.49943e-90
       233395   3.35961e-90
       233400   3.22535e-90
       233405   3.09644e-90
       233410   2.97267e-90
       233415   2.85382e-90
       233420   2.73971e-90
       233425   2.63014e-90
       233430   2.52494e-90
       233435   2.42393e-90
       233440   2.32695e-90
       233445   2.23383e-90
       233450   2.14443e-90
       233455   2.05859e-90
       233460   1.97618e-90
       233465   1.89705e-90
       233470   1.82108e-90
       233475   1.74814e-90
       233480   1.67811e-90
       233485   1.61088e-90
       233490   1.54633e-90
       233495   1.48436e-90
       233500   1.42486e-90
       233505   1.36774e-90
       233510    1.3129e-90
       233515   1.26025e-90
       233520   1.20971e-90
       233525   1.16118e-90
       233530   1.11459e-90
       233535   1.06987e-90
       233540   1.02694e-90
       233545   9.85717e-91
       233550   9.46146e-91
       233555   9.08159e-91
       233560   8.71691e-91
       233565   8.36682e-91
       233570   8.03074e-91
       233575   7.70811e-91
       233580    7.3984e-91
       233585   7.10109e-91
       233590   6.81568e-91
       233595    6.5417e-91
       233600   6.27869e-91
       233605   6.02622e-91
       233610   5.78387e-91
       233615   5.55122e-91
       233620   5.32791e-91
       233625   5.11354e-91
       233630   4.90776e-91
       233635   4.71024e-91
       233640   4.52064e-91
       233645   4.33864e-91
       233650   4.16394e-91
       233655   3.99626e-91
       233660    3.8353e-91
       233665    3.6808e-91
       233670    3.5325e-91
       233675   3.39015e-91
       233680   3.25352e-91
       233685   3.12238e-91
       233690    2.9965e-91
       233695   2.87568e-91
       233700   2.75972e-91
       233705   2.64841e-91
       233710   2.54158e-91
       233715   2.43904e-91
       233720   2.34062e-91
       233725   2.24616e-91
       233730    2.1555e-91
       233735   2.06849e-91
       233740   1.98497e-91
       233745   1.90482e-91
       233750   1.82789e-91
       233755   1.75405e-91
       233760   1.68319e-91
       233765   1.61518e-91
       233770   1.54991e-91
       233775   1.48726e-91
       233780   1.42714e-91
       233785   1.36944e-91
       233790   1.31407e-91
       233795   1.26092e-91
       233800   1.20992e-91
       233805   1.16097e-91
       233810     1.114e-91
       233815   1.06892e-91
       233820   1.02566e-91
       233825    9.8414e-92
       233830   9.44297e-92
       233835   9.06062e-92
       233840   8.69369e-92
       233845   8.34156e-92
       233850   8.00365e-92
       233855   7.67938e-92
       233860   7.36819e-92
       233865   7.06958e-92
       233870   6.78302e-92
       233875   6.50803e-92
       233880   6.24416e-92
       233885   5.99094e-92
       233890   5.74796e-92
       233895   5.51479e-92
       233900   5.29106e-92
       233905   5.07636e-92
       233910   4.87035e-92
       233915   4.67266e-92
       233920   4.48298e-92
       233925   4.30096e-92
       233930   4.12631e-92
       233935   3.95872e-92
       233940   3.79792e-92
       233945   3.64363e-92
       233950   3.49558e-92
       233955   3.35353e-92
       233960   3.21722e-92
       233965   3.08644e-92
       233970   2.96096e-92
       233975   2.84056e-92
       233980   2.72504e-92
       233985   2.61419e-92
       233990   2.50785e-92
       233995   2.40581e-92
       234000   2.30791e-92
       234005   2.21398e-92
       234010   2.12386e-92
       234015   2.03739e-92
       234020   1.95443e-92
       234025   1.87484e-92
       234030   1.79848e-92
       234035   1.72521e-92
       234040   1.65492e-92
       234045   1.58749e-92
       234050   1.52279e-92
       234055   1.46072e-92
       234060   1.40117e-92
       234065   1.34404e-92
       234070   1.28923e-92
       234075   1.23665e-92
       234080    1.1862e-92
       234085   1.13781e-92
       234090   1.09138e-92
       234095   1.04684e-92
       234100   1.00411e-92
       234105   9.63123e-93
       234110     9.238e-93
       234115   8.86076e-93
       234120   8.49888e-93
       234125   8.15173e-93
       234130    7.8187e-93
       234135   7.49923e-93
       234140   7.19277e-93
       234145   6.89879e-93
       234150   6.61678e-93
       234155   6.34626e-93
       234160   6.08676e-93
       234165   5.83783e-93
       234170   5.59905e-93
       234175      5.37e-93
       234180   5.15029e-93
       234185   4.93953e-93
       234190   4.73737e-93
       234195   4.54345e-93
       234200   4.35745e-93
       234205   4.17903e-93
       234210   4.00789e-93
       234215   3.84373e-93
       234220   3.68628e-93
       234225   3.53525e-93
       234230   3.39038e-93
       234235   3.25144e-93
       234240   3.11816e-93
       234245   2.99033e-93
       234250   2.86773e-93
       234255   2.75013e-93
       234260   2.63734e-93
       234265   2.52915e-93
       234270   2.42539e-93
       234275   2.32587e-93
       234280   2.23042e-93
       234285   2.13887e-93
       234290   2.05107e-93
       234295   1.96686e-93
       234300    1.8861e-93
       234305   1.80864e-93
       234310   1.73434e-93
       234315   1.66309e-93
       234320   1.59476e-93
       234325   1.52923e-93
       234330   1.46637e-93
       234335    1.4061e-93
       234340   1.34829e-93
       234345   1.29285e-93
       234350   1.23968e-93
       234355   1.18869e-93
       234360   1.13979e-93
       234365    1.0929e-93
       234370   1.04792e-93
       234375    1.0048e-93
       234380   9.63436e-94
       234385   9.23772e-94
       234390   8.85736e-94
       234395   8.49261e-94
       234400   8.14283e-94
       234405    7.8074e-94
       234410   7.48574e-94
       234415   7.17728e-94
       234420   6.88149e-94
       234425   6.59785e-94
       234430   6.32586e-94
       234435   6.06504e-94
       234440   5.81494e-94
       234445   5.57512e-94
       234450   5.34515e-94
       234455   5.12463e-94
       234460   4.91318e-94
       234465   4.71043e-94
       234470   4.51601e-94
       234475   4.32959e-94
       234480   4.15084e-94
       234485   3.97944e-94
       234490   3.81509e-94
       234495   3.65751e-94
       234500   3.50642e-94
       234505   3.36154e-94
       234510   3.22263e-94
       234515   3.08944e-94
       234520   2.96173e-94
       234525   2.83929e-94
       234530   2.72189e-94
       234535   2.60933e-94
       234540    2.5014e-94
       234545   2.39793e-94
       234550   2.29872e-94
       234555    2.2036e-94
       234560    2.1124e-94
       234565   2.02496e-94
       234570   1.94113e-94
       234575   1.86076e-94
       234580   1.78371e-94
       234585   1.70983e-94
       234590   1.63901e-94
       234595    1.5711e-94
       234600     1.506e-94
       234605   1.44359e-94
       234610   1.38376e-94
       234615    1.3264e-94
       234620    1.2714e-94
       234625   1.21868e-94
       234630   1.16814e-94
       234635   1.11969e-94
       234640   1.07324e-94
       234645    1.0287e-94
       234650   9.86016e-95
       234655   9.45092e-95
       234660   9.05861e-95
       234665   8.68253e-95
       234670   8.32201e-95
       234675    7.9764e-95
       234680    7.6451e-95
       234685   7.32751e-95
       234690   7.02307e-95
       234695   6.73123e-95
       234700   6.45148e-95
       234705   6.18332e-95
       234710   5.92626e-95
       234715   5.67985e-95
       234720   5.44365e-95
       234725   5.21725e-95
       234730   5.00022e-95
       234735   4.79219e-95
       234740   4.59279e-95
       234745   4.40165e-95
       234750   4.21844e-95
       234755   4.04283e-95
       234760   3.87451e-95
       234765   3.71317e-95
       234770   3.55852e-95
       234775    3.4103e-95
       234780   3.26822e-95
       234785   3.13205e-95
       234790   3.00153e-95
       234795   2.87643e-95
       234800   2.75652e-95
       234805    2.6416e-95
       234810   2.53145e-95
       234815   2.42588e-95
       234820    2.3247e-95
       234825   2.22772e-95
       234830   2.13477e-95
       234835   2.04569e-95
       234840   1.96031e-95
       234845   1.87848e-95
       234850   1.80006e-95
       234855    1.7249e-95
       234860   1.65287e-95
       234865   1.58384e-95
       234870   1.51767e-95
       234875   1.45427e-95
       234880    1.3935e-95
       234885   1.33526e-95
       234890   1.27945e-95
       234895   1.22597e-95
       234900   1.17471e-95
       234905   1.12558e-95
       234910   1.07851e-95
       234915    1.0334e-95
       234920   9.90163e-96
       234925   9.48733e-96
       234930    9.0903e-96
       234935   8.70983e-96
       234940   8.34523e-96
       234945   7.99584e-96
       234950   7.66103e-96
       234955   7.34019e-96
       234960   7.03274e-96
       234965   6.73812e-96
       234970   6.45581e-96
       234975   6.18528e-96
       234980   5.92605e-96
       234985   5.67764e-96
       234990   5.43962e-96
       234995   5.21154e-96
       235000   4.99298e-96
       235005   4.78357e-96
       235010    4.5829e-96
       235015   4.39063e-96
       235020   4.20639e-96
       235025   4.02986e-96
       235030   3.86071e-96
       235035   3.69864e-96
       235040   3.54335e-96
       235045   3.39455e-96
       235050   3.25198e-96
       235055   3.11538e-96
       235060    2.9845e-96
       235065    2.8591e-96
       235070   2.73895e-96
       235075   2.62383e-96
       235080   2.51353e-96
       235085   2.40785e-96
       235090   2.30661e-96
       235095    2.2096e-96
       235100   2.11666e-96
       235105   2.02762e-96
       235110    1.9423e-96
       235115   1.86057e-96
       235120   1.78226e-96
       235125   1.70724e-96
       235130   1.63537e-96
       235135   1.56651e-96
       235140   1.50054e-96
       235145   1.43734e-96
       235150   1.37679e-96
       235155   1.31878e-96
       235160   1.26321e-96
       235165   1.20998e-96
       235170   1.15898e-96
       235175   1.11012e-96
       235180   1.06331e-96
       235185   1.01847e-96
       235190   9.75519e-97
       235195    9.3437e-97
       235200    8.9495e-97
       235205   8.57188e-97
       235210   8.21014e-97
       235215   7.86362e-97
       235220   7.53167e-97
       235225   7.21368e-97
       235230   6.90908e-97
       235235   6.61729e-97
       235240   6.33779e-97
       235245   6.07005e-97
       235250   5.81358e-97
       235255   5.56791e-97
       235260   5.33259e-97
       235265   5.10718e-97
       235270   4.89126e-97
       235275   4.68445e-97
       235280   4.48635e-97
       235285   4.29659e-97
       235290   4.11484e-97
       235295   3.94075e-97
       235300     3.774e-97
       235305   3.61428e-97
       235310   3.46129e-97
       235315   3.31477e-97
       235320   3.17442e-97
       235325   3.03999e-97
       235330   2.91124e-97
       235335   2.78792e-97
       235340   2.66981e-97