# Probe 0 (0.05 0.05 0.005)
#       Probe             0
#        Time
       230005     0.0567442
       230010     0.0567388
       230015     0.0567334
       230020     0.0567279
       230025     0.0567225
       230030     0.0567171
       230035     0.0567117
       230040     0.0567062
       230045     0.0567008
       230050     0.0566954
       230055       0.05669
       230060     0.0566845
       230065     0.0566791
       230070     0.0566737
       230075     0.0566683
       230080     0.0566628
       230085     0.0566574
       230090      0.056652
       230095     0.0566466
       230100     0.0566412
       230105     0.0566357
       230110     0.0566303
       230115     0.0566249
       230120     0.0566195
       230125     0.0566141
       230130     0.0566087
       230135     0.0566033
       230140     0.0565978
       230145     0.0565924
       230150      0.056587
       230155     0.0565816
       230160     0.0565762
       230165     0.0565708
       230170     0.0565654
       230175       0.05656
       230180     0.0565546
       230185     0.0565492
       230190     0.0565438
       230195     0.0565383
       230200     0.0565329
       230205     0.0565275
       230210     0.0565221
       230215     0.0565167
       230220     0.0565113
       230225     0.0565059
       230230     0.0565005
       230235     0.0564951
       230240     0.0564897
       230245     0.0564843
       230250     0.0564789
       230255     0.0564735
       230260     0.0564681
       230265     0.0564627
       230270     0.0564574
       230275      0.056452
       230280     0.0564466
       230285     0.0564412
       230290     0.0564358
       230295     0.0564304
       230300      0.056425
       230305     0.0564196
       230310     0.0564142
       230315     0.0564088
       230320     0.0564034
       230325     0.0563981
       230330     0.0563927
       230335     0.0563873
       230340     0.0563819
       230345     0.0563765
       230350     0.0563711
       230355     0.0563657
       230360     0.0563604
       230365      0.056355
       230370     0.0563496
       230375     0.0563442
       230380     0.0563388
       230385     0.0563335
       230390     0.0563281
       230395     0.0563227
       230400     0.0563173
       230405     0.0563119
       230410     0.0563066
       230415     0.0563012
       230420     0.0562958
       230425     0.0562904
       230430     0.0562851
       230435     0.0562797
       230440     0.0562743
       230445      0.056269
       230450     0.0562636
       230455     0.0562582
       230460     0.0562528
       230465     0.0562475
       230470     0.0562421
       230475     0.0562367
       230480     0.0562314
       230485      0.056226
       230490     0.0562206
       230495     0.0562153
       230500     0.0562099
       230505     0.0562046
       230510     0.0561992
       230515     0.0561938
       230520     0.0561885
       230525     0.0561831
       230530     0.0561778
       230535     0.0561724
       230540      0.056167
       230545     0.0561617
       230550     0.0561563
       230555      0.056151
       230560     0.0561456
       230565     0.0561403
       230570     0.0561349
       230575     0.0561295
       230580     0.0561242
       230585     0.0561188
       230590     0.0561135
       230595     0.0561081
       230600     0.0561028
       230605     0.0560974
       230610     0.0560921
       230615     0.0560867
       230620     0.0560814
       230625      0.056076
       230630     0.0560707
       230635     0.0560654
       230640       0.05606
       230645     0.0560547
       230650     0.0560493
       230655      0.056044
       230660     0.0560386
       230665     0.0560333
       230670      0.056028
       230675     0.0560226
       230680     0.0560173
       230685     0.0560119
       230690     0.0560066
       230695     0.0560013
       230700     0.0559959
       230705     0.0559906
       230710     0.0559853
       230715     0.0559799
       230720     0.0559746
       230725     0.0559693
       230730     0.0559639
       230735     0.0559586
       230740     0.0559533
       230745     0.0559479
       230750     0.0559426
       230755     0.0559373
       230760     0.0559319
       230765     0.0559266
       230770     0.0559213
       230775      0.055916
       230780     0.0559106
       230785     0.0559053
       230790        0.0559
       230795     0.0558947
       230800     0.0558893
       230805      0.055884
       230810     0.0558787
       230815     0.0558734
       230820      0.055868
       230825     0.0558627
       230830     0.0558574
       230835     0.0558521
       230840     0.0558468
       230845     0.0558415
       230850     0.0558361
       230855     0.0558308
       230860     0.0558255
       230865     0.0558202
       230870     0.0558149
       230875     0.0558096
       230880     0.0558043
       230885     0.0557989
       230890     0.0557936
       230895     0.0557883
       230900      0.055783
       230905     0.0557777
       230910     0.0557724
       230915     0.0557671
       230920     0.0557618
       230925     0.0557565
       230930     0.0557512
       230935     0.0557459
       230940     0.0557406
       230945     0.0557353
       230950     0.0557299
       230955     0.0557246
       230960     0.0557193
       230965      0.055714
       230970     0.0557087
       230975     0.0557034
       230980     0.0556981
       230985     0.0556928
       230990     0.0556875
       230995     0.0556823
       231000      0.055677
       231005     0.0556717
       231010     0.0556664
       231015     0.0556611
       231020     0.0556558
       231025     0.0556505
       231030     0.0556452
       231035     0.0556399
       231040     0.0556346
       231045     0.0556293
       231050      0.055624
       231055     0.0556187
       231060     0.0556134
       231065     0.0556082
       231070     0.0556029
       231075     0.0555976
       231080     0.0555923
       231085      0.055587
       231090     0.0555817
       231095     0.0555764
       231100     0.0555712
       231105     0.0555659
       231110     0.0555606
       231115     0.0555553
       231120       0.05555
       231125     0.0555448
       231130     0.0555395
       231135     0.0555342
       231140     0.0555289
       231145     0.0555236
       231150     0.0555184
       231155     0.0555131
       231160     0.0555078
       231165     0.0555025
       231170     0.0554973
       231175      0.055492
       231180     0.0554867
       231185     0.0554815
       231190     0.0554762
       231195     0.0554709
       231200     0.0554656
       231205     0.0554604
       231210     0.0554551
       231215     0.0554498
       231220     0.0554446
       231225     0.0554393
       231230      0.055434
       231235     0.0554288
       231240     0.0554235
       231245     0.0554182
       231250      0.055413
       231255     0.0554077
       231260     0.0554025
       231265     0.0553972
       231270     0.0553919
       231275     0.0553867
       231280     0.0553814
       231285     0.0553762
       231290     0.0553709
       231295     0.0553656
       231300     0.0553604
       231305     0.0553551
       231310     0.0553499
       231315     0.0553446
       231320     0.0553394
       231325     0.0553341
       231330     0.0553289
       231335     0.0553236
       231340     0.0553184
       231345     0.0553131
       231350     0.0553079
       231355     0.0553026
       231360     0.0552974
       231365     0.0552921
       231370     0.0552869
       231375     0.0552816
       231380     0.0552764
       231385     0.0552711
       231390     0.0552659
       231395     0.0552606
       231400     0.0552554
       231405     0.0552501
       231410     0.0552449
       231415     0.0552397
       231420     0.0552344
       231425     0.0552292
       231430     0.0552239
       231435     0.0552187
       231440     0.0552135
       231445     0.0552082
       231450      0.055203
       231455     0.0551978
       231460     0.0551925
       231465     0.0551873
       231470     0.0551821
       231475     0.0551768
       231480     0.0551716
       231485     0.0551664
       231490     0.0551611
       231495     0.0551559
       231500     0.0551507
       231505     0.0551454
       231510     0.0551402
       231515      0.055135
       231520     0.0551297
       231525     0.0551245
       231530     0.0551193
       231535     0.0551141
       231540     0.0551088
       231545     0.0551036
       231550     0.0550984
       231555     0.0550932
       231560     0.0550879
       231565     0.0550827
       231570     0.0550775
       231575     0.0550723
       231580     0.0550671
       231585     0.0550618
       231590     0.0550566
       231595     0.0550514
       231600     0.0550462
       231605      0.055041
       231610     0.0550358
       231615     0.0550305
       231620     0.0550253
       231625     0.0550201
       231630     0.0550149
       231635     0.0550097
       231640     0.0550045
       231645     0.0549993
       231650     0.0549941
       231655     0.0549888
       231660     0.0549836
       231665     0.0549784
       231670     0.0549732
       231675      0.054968
       231680     0.0549628
       231685     0.0549576
       231690     0.0549524
       231695     0.0549472
       231700      0.054942
       231705     0.0549368
       231710     0.0549316
       231715     0.0549264
       231720     0.0549212
       231725      0.054916
       231730     0.0549108
       231735     0.0549056
       231740     0.0549004
       231745     0.0548952
       231750       0.05489
       231755     0.0548848
       231760     0.0548796
       231765     0.0548744
       231770     0.0548692
       231775      0.054864
       231780     0.0548588
       231785     0.0548536
       231790     0.0548484
       231795     0.0548432
       231800      0.054838
       231805     0.0548329
       231810     0.0548277
       231815     0.0548225
       231820     0.0548173
       231825     0.0548121
       231830     0.0548069
       231835     0.0548017
       231840     0.0547965
       231845     0.0547914
       231850     0.0547862
       231855      0.054781
       231860     0.0547758
       231865     0.0547706
       231870     0.0547654
       231875     0.0547603
       231880     0.0547551
       231885     0.0547499
       231890     0.0547447
       231895     0.0547395
       231900     0.0547344
       231905     0.0547292
       231910      0.054724
       231915     0.0547188
       231920     0.0547137
       231925     0.0547085
       231930     0.0547033
       231935     0.0546981
       231940      0.054693
       231945     0.0546878
       231950     0.0546826
       231955     0.0546774
       231960     0.0546723
       231965     0.0546671
       231970     0.0546619
       231975     0.0546568
       231980     0.0546516
       231985     0.0546464
       231990     0.0546413
       231995     0.0546361
       232000     0.0546309
       232005     0.0546258
       232010     0.0546206
       232015     0.0546154
       232020     0.0546103
       232025     0.0546051
       232030        0.0546
       232035     0.0545948
       232040     0.0545896
       232045     0.0545845
       232050     0.0545793
       232055     0.0545742
       232060      0.054569
       232065     0.0545638
       232070     0.0545587
       232075     0.0545535
       232080     0.0545484
       232085     0.0545432
       232090     0.0545381
       232095     0.0545329
       232100     0.0545278
       232105     0.0545226
       232110     0.0545175
       232115     0.0545123
       232120     0.0545072
       232125      0.054502
       232130     0.0544969
       232135     0.0544917
       232140     0.0544866
       232145     0.0544814
       232150     0.0544763
       232155     0.0544711
       232160      0.054466
       232165     0.0544608
       232170     0.0544557
       232175     0.0544506
       232180     0.0544454
       232185     0.0544403
       232190     0.0544351
       232195       0.05443
       232200     0.0544249
       232205     0.0544197
       232210     0.0544146
       232215     0.0544094
       232220     0.0544043
       232225     0.0543992
       232230      0.054394
       232235     0.0543889
       232240     0.0543838
       232245     0.0543786
       232250     0.0543735
       232255     0.0543684
       232260     0.0543632
       232265     0.0543581
       232270      0.054353
       232275     0.0543478
       232280     0.0543427
       232285     0.0543376
       232290     0.0543325
       232295     0.0543273
       232300     0.0543222
       232305     0.0543171
       232310      0.054312
       232315     0.0543068
       232320     0.0543017
       232325     0.0542966
       232330     0.0542915
       232335     0.0542863
       232340     0.0542812
       232345     0.0542761
       232350      0.054271
       232355     0.0542659
       232360     0.0542607
       232365     0.0542556
       232370     0.0542505
       232375     0.0542454
       232380     0.0542403
       232385     0.0542352
       232390       0.05423
       232395     0.0542249
       232400     0.0542198
       232405     0.0542147
       232410     0.0542096
       232415     0.0542045
       232420     0.0541994
       232425     0.0541942
       232430     0.0541891
       232435      0.054184
       232440     0.0541789
       232445     0.0541738
       232450     0.0541687
       232455     0.0541636
       232460     0.0541585
       232465     0.0541534
       232470     0.0541483
       232475     0.0541432
       232480     0.0541381
       232485      0.054133
       232490     0.0541279
       232495     0.0541228
       232500     0.0541177
       232505     0.0541126
       232510     0.0541075
       232515     0.0541024
       232520     0.0540973
       232525     0.0540922
       232530     0.0540871
       232535      0.054082
       232540     0.0540769
       232545     0.0540718
       232550     0.0540667
       232555     0.0540616
       232560     0.0540565
       232565     0.0540514
       232570     0.0540463
       232575     0.0540412
       232580     0.0540361
       232585      0.054031
       232590      0.054026
       232595     0.0540209
       232600     0.0540158
       232605     0.0540107
       232610     0.0540056
       232615     0.0540005
       232620     0.0539954
       232625     0.0539904
       232630     0.0539853
       232635     0.0539802
       232640     0.0539751
       232645       0.05397
       232650     0.0539649
       232655     0.0539599
       232660     0.0539548
       232665     0.0539497
       232670     0.0539446
       232675     0.0539395
       232680     0.0539345
       232685     0.0539294
       232690     0.0539243
       232695     0.0539192
       232700     0.0539142
       232705     0.0539091
       232710      0.053904
       232715     0.0538989
       232720     0.0538939
       232725     0.0538888
       232730     0.0538837
       232735     0.0538786
       232740     0.0538736
       232745     0.0538685
       232750     0.0538634
       232755     0.0538584
       232760     0.0538533
       232765     0.0538482
       232770     0.0538432
       232775     0.0538381
       232780      0.053833
       232785      0.053828
       232790     0.0538229
       232795     0.0538178
       232800     0.0538128
       232805     0.0538077
       232810     0.0538026
       232815     0.0537976
       232820     0.0537925
       232825     0.0537875
       232830     0.0537824
       232835     0.0537773
       232840     0.0537723
       232845     0.0537672
       232850     0.0537622
       232855     0.0537571
       232860     0.0537521
       232865      0.053747
       232870      0.053742
       232875     0.0537369
       232880     0.0537319
       232885     0.0537268
       232890     0.0537217
       232895     0.0537167
       232900     0.0537116
       232905     0.0537066
       232910     0.0537015
       232915     0.0536965
       232920     0.0536915
       232925     0.0536864
       232930     0.0536814
       232935     0.0536763
       232940     0.0536713
       232945     0.0536662
       232950     0.0536612
       232955     0.0536561
       232960     0.0536511
       232965      0.053646
       232970      0.053641
       232975      0.053636
       232980     0.0536309
       232985     0.0536259
       232990     0.0536208
       232995     0.0536158
       233000     0.0536108
       233005     0.0536057
       233010     0.0536007
       233015     0.0535957
       233020     0.0535906
       233025     0.0535856
       233030     0.0535806
       233035     0.0535755
       233040     0.0535705
       233045     0.0535655
       233050     0.0535604
       233055     0.0535554
       233060     0.0535504
       233065     0.0535453
       233070     0.0535403
       233075     0.0535353
       233080     0.0535303
       233085     0.0535252
       233090     0.0535202
       233095     0.0535152
       233100     0.0535101
       233105     0.0535051
       233110     0.0535001
       233115     0.0534951
       233120     0.0534901
       233125      0.053485
       233130       0.05348
       233135      0.053475
       233140       0.05347
       233145     0.0534649
       233150     0.0534599
       233155     0.0534549
       233160     0.0534499
       233165     0.0534449
       233170     0.0534399
       233175     0.0534348
       233180     0.0534298
       233185     0.0534248
       233190     0.0534198
       233195     0.0534148
       233200     0.0534098
       233205     0.0534048
       233210     0.0533997
       233215     0.0533947
       233220     0.0533897
       233225     0.0533847
       233230     0.0533797
       233235     0.0533747
       233240     0.0533697
       233245     0.0533647
       233250     0.0533597
       233255     0.0533547
       233260     0.0533497
       233265     0.0533447
       233270     0.0533397
       233275     0.0533347
       233280     0.0533297
       233285     0.0533247
       233290     0.0533196
       233295     0.0533146
       233300     0.0533096
       233305     0.0533046
       233310     0.0532996
       233315     0.0532947
       233320     0.0532897
       233325     0.0532847
       233330     0.0532797
       233335     0.0532747
       233340     0.0532697
       233345     0.0532647
       233350     0.0532597
       233355     0.0532547
       233360     0.0532497
       233365     0.0532447
       233370     0.0532397
       233375     0.0532347
       233380     0.0532297
       233385     0.0532247
       233390     0.0532197
       233395     0.0532148
       233400     0.0532098
       233405     0.0532048
       233410     0.0531998
       233415     0.0531948
       233420     0.0531898
       233425     0.0531848
       233430     0.0531799
       233435     0.0531749
       233440     0.0531699
       233445     0.0531649
       233450     0.0531599
       233455     0.0531549
       233460       0.05315
       233465      0.053145
       233470       0.05314
       233475      0.053135
       233480       0.05313
       233485     0.0531251
       233490     0.0531201
       233495     0.0531151
       233500     0.0531101
       233505     0.0531052
       233510     0.0531002
       233515     0.0530952
       233520     0.0530902
       233525     0.0530853
       233530     0.0530803
       233535     0.0530753
       233540     0.0530704
       233545     0.0530654
       233550     0.0530604
       233555     0.0530555
       233560     0.0530505
       233565     0.0530455
       233570     0.0530405
       233575     0.0530356
       233580     0.0530306
       233585     0.0530257
       233590     0.0530207
       233595     0.0530157
       233600     0.0530108
       233605     0.0530058
       233610     0.0530008
       233615     0.0529959
       233620     0.0529909
       233625      0.052986
       233630      0.052981
       233635      0.052976
       233640     0.0529711
       233645     0.0529661
       233650     0.0529612
       233655     0.0529562
       233660     0.0529512
       233665     0.0529463
       233670     0.0529413
       233675     0.0529364
       233680     0.0529314
       233685     0.0529265
       233690     0.0529215
       233695     0.0529166
       233700     0.0529116
       233705     0.0529067
       233710     0.0529017
       233715     0.0528968
       233720     0.0528918
       233725     0.0528869
       233730     0.0528819
       233735      0.052877
       233740      0.052872
       233745     0.0528671
       233750     0.0528621
       233755     0.0528572
       233760     0.0528523
       233765     0.0528473
       233770     0.0528424
       233775     0.0528374
       233780     0.0528325
       233785     0.0528276
       233790     0.0528226
       233795     0.0528177
       233800     0.0528127
       233805     0.0528078
       233810     0.0528029
       233815     0.0527979
       233820      0.052793
       233825     0.0527881
       233830     0.0527831
       233835     0.0527782
       233840     0.0527732
       233845     0.0527683
       233850     0.0527634
       233855     0.0527584
       233860     0.0527535
       233865     0.0527486
       233870     0.0527437
       233875     0.0527387
       233880     0.0527338
       233885     0.0527289
       233890     0.0527239
       233895      0.052719
       233900     0.0527141
       233905     0.0527092
       233910     0.0527042
       233915     0.0526993
       233920     0.0526944
       233925     0.0526895
       233930     0.0526845
       233935     0.0526796
       233940     0.0526747
       233945     0.0526698
       233950     0.0526649
       233955     0.0526599
       233960      0.052655
       233965     0.0526501
       233970     0.0526452
       233975     0.0526403
       233980     0.0526353
       233985     0.0526304
       233990     0.0526255
       233995     0.0526206
       234000     0.0526157
       234005     0.0526108
       234010     0.0526059
       234015     0.0526009
       234020      0.052596
       234025     0.0525911
       234030     0.0525862
       234035     0.0525813
       234040     0.0525764
       234045     0.0525715
       234050     0.0525666
       234055     0.0525617
       234060     0.0525568
       234065     0.0525519
       234070      0.052547
       234075      0.052542
       234080     0.0525371
       234085     0.0525322
       234090     0.0525273
       234095     0.0525224
       234100     0.0525175
       234105     0.0525126
       234110     0.0525077
       234115     0.0525028
       234120     0.0524979
       234125      0.052493
       234130     0.0524881
       234135     0.0524832
       234140     0.0524783
       234145     0.0524734
       234150     0.0524685
       234155     0.0524636
       234160     0.0524588
       234165     0.0524539
       234170      0.052449
       234175     0.0524441
       234180     0.0524392
       234185     0.0524343
       234190     0.0524294
       234195     0.0524245
       234200     0.0524196
       234205     0.0524147
       234210     0.0524098
       234215     0.0524049
       234220     0.0524001
       234225     0.0523952
       234230     0.0523903
       234235     0.0523854
       234240     0.0523805
       234245     0.0523756
       234250     0.0523707
       234255     0.0523659
       234260      0.052361
       234265     0.0523561
       234270     0.0523512
       234275     0.0523463
       234280     0.0523415
       234285     0.0523366
       234290     0.0523317
       234295     0.0523268
       234300     0.0523219
       234305     0.0523171
       234310     0.0523122
       234315     0.0523073
       234320     0.0523024
       234325     0.0522976
       234330     0.0522927
       234335     0.0522878
       234340     0.0522829
       234345     0.0522781
       234350     0.0522732
       234355     0.0522683
       234360     0.0522635
       234365     0.0522586
       234370     0.0522537
       234375     0.0522488
       234380      0.052244
       234385     0.0522391
       234390     0.0522342
       234395     0.0522294
       234400     0.0522245
       234405     0.0522196
       234410     0.0522148
       234415     0.0522099
       234420      0.052205
       234425     0.0522002
       234430     0.0521953
       234435     0.0521905
       234440     0.0521856
       234445     0.0521807
       234450     0.0521759
       234455      0.052171
       234460     0.0521662
       234465     0.0521613
       234470     0.0521564
       234475     0.0521516
       234480     0.0521467
       234485     0.0521419
       234490      0.052137
       234495     0.0521322
       234500     0.0521273
       234505     0.0521225
       234510     0.0521176
       234515     0.0521128
       234520     0.0521079
       234525     0.0521031
       234530     0.0520982
       234535     0.0520934
       234540     0.0520885
       234545     0.0520837
       234550     0.0520788
       234555      0.052074
       234560     0.0520691
       234565     0.0520643
       234570     0.0520594
       234575     0.0520546
       234580     0.0520497
       234585     0.0520449
       234590       0.05204
       234595     0.0520352
       234600     0.0520304
       234605     0.0520255
       234610     0.0520207
       234615     0.0520158
       234620      0.052011
       234625     0.0520062
       234630     0.0520013
       234635     0.0519965
       234640     0.0519916
       234645     0.0519868
       234650      0.051982
       234655     0.0519771
       234660     0.0519723
       234665     0.0519675
       234670     0.0519626
       234675     0.0519578
       234680      0.051953
       234685     0.0519481
       234690     0.0519433
       234695     0.0519385
       234700     0.0519336
       234705     0.0519288
       234710      0.051924
       234715     0.0519192
       234720     0.0519143
       234725     0.0519095
       234730     0.0519047
       234735     0.0518999
       234740      0.051895
       234745     0.0518902
       234750     0.0518854
       234755     0.0518806
       234760     0.0518757
       234765     0.0518709
       234770     0.0518661
       234775     0.0518613
       234780     0.0518564
       234785     0.0518516
       234790     0.0518468
       234795      0.051842
       234800     0.0518372
       234805     0.0518323
       234810     0.0518275
       234815     0.0518227
       234820     0.0518179
       234825     0.0518131
       234830     0.0518083
       234835     0.0518035
       234840     0.0517986
       234845     0.0517938
       234850      0.051789
       234855     0.0517842
       234860     0.0517794
       234865     0.0517746
       234870     0.0517698
       234875      0.051765
       234880     0.0517602
       234885     0.0517553
       234890     0.0517505
       234895     0.0517457
       234900     0.0517409
       234905     0.0517361
       234910     0.0517313
       234915     0.0517265
       234920     0.0517217
       234925     0.0517169
       234930     0.0517121
       234935     0.0517073
       234940     0.0517025
       234945     0.0516977
       234950     0.0516929
       234955     0.0516881
       234960     0.0516833
       234965     0.0516785
       234970     0.0516737
       234975     0.0516689
       234980     0.0516641
       234985     0.0516593
       234990     0.0516545
       234995     0.0516497
       235000     0.0516449
       235005     0.0516401
       235010     0.0516353
       235015     0.0516305
       235020     0.0516258
       235025      0.051621
       235030     0.0516162
       235035     0.0516114
       235040     0.0516066
       235045     0.0516018
       235050      0.051597
       235055     0.0515922
       235060     0.0515874
       235065     0.0515826
       235070     0.0515779
       235075     0.0515731
       235080     0.0515683
       235085     0.0515635
       235090     0.0515587
       235095     0.0515539
       235100     0.0515492
       235105     0.0515444
       235110     0.0515396
       235115     0.0515348
       235120       0.05153
       235125     0.0515253
       235130     0.0515205
       235135     0.0515157
       235140     0.0515109
       235145     0.0515061
       235150     0.0515014
       235155     0.0514966
       235160     0.0514918
       235165      0.051487
       235170     0.0514823
       235175     0.0514775
       235180     0.0514727
       235185     0.0514679
       235190     0.0514632
       235195     0.0514584
       235200     0.0514536
       235205     0.0514489
       235210     0.0514441
       235215     0.0514393
       235220     0.0514345
       235225     0.0514298
       235230      0.051425
       235235     0.0514202
       235240     0.0514155
       235245     0.0514107
       235250     0.0514059
       235255     0.0514012
       235260     0.0513964
       235265     0.0513917
       235270     0.0513869
       235275     0.0513821
       235280     0.0513774
       235285     0.0513726
       235290     0.0513678
       235295     0.0513631
       235300     0.0513583
       235305     0.0513536
       235310     0.0513488
       235315     0.0513441
       235320     0.0513393
       235325     0.0513345
       235330     0.0513298
       235335      0.051325
       235340     0.0513203