# Probe 0 (0.05 0.05 0.005)
#       Probe             0
#        Time
       230005   2.55754e-06
       230010   2.55729e-06
       230015   2.55705e-06
       230020    2.5568e-06
       230025   2.55656e-06
       230030   2.55631e-06
       230035   2.55607e-06
       230040   2.55582e-06
       230045   2.55558e-06
       230050   2.55533e-06
       230055   2.55509e-06
       230060   2.55484e-06
       230065    2.5546e-06
       230070   2.55436e-06
       230075   2.55411e-06
       230080   2.55387e-06
       230085   2.55362e-06
       230090   2.55338e-06
       230095   2.55313e-06
       230100   2.55289e-06
       230105   2.55265e-06
       230110    2.5524e-06
       230115   2.55216e-06
       230120   2.55191e-06
       230125   2.55167e-06
       230130   2.55143e-06
       230135   2.55118e-06
       230140   2.55094e-06
       230145   2.55069e-06
       230150   2.55045e-06
       230155   2.55021e-06
       230160   2.54996e-06
       230165   2.54972e-06
       230170   2.54947e-06
       230175   2.54923e-06
       230180   2.54899e-06
       230185   2.54874e-06
       230190    2.5485e-06
       230195   2.54826e-06
       230200   2.54801e-06
       230205   2.54777e-06
       230210   2.54753e-06
       230215   2.54728e-06
       230220   2.54704e-06
       230225    2.5468e-06
       230230   2.54655e-06
       230235   2.54631e-06
       230240   2.54607e-06
       230245   2.54582e-06
       230250   2.54558e-06
       230255   2.54534e-06
       230260   2.54509e-06
       230265   2.54485e-06
       230270   2.54461e-06
       230275   2.54436e-06
       230280   2.54412e-06
       230285   2.54388e-06
       230290   2.54363e-06
       230295   2.54339e-06
       230300   2.54315e-06
       230305    2.5429e-06
       230310   2.54266e-06
       230315   2.54242e-06
       230320   2.54218e-06
       230325   2.54193e-06
       230330   2.54169e-06
       230335   2.54145e-06
       230340    2.5412e-06
       230345   2.54096e-06
       230350   2.54072e-06
       230355   2.54048e-06
       230360   2.54023e-06
       230365   2.53999e-06
       230370   2.53975e-06
       230375   2.53951e-06
       230380   2.53926e-06
       230385   2.53902e-06
       230390   2.53878e-06
       230395   2.53854e-06
       230400   2.53829e-06
       230405   2.53805e-06
       230410   2.53781e-06
       230415   2.53757e-06
       230420   2.53733e-06
       230425   2.53708e-06
       230430   2.53684e-06
       230435    2.5366e-06
       230440   2.53636e-06
       230445   2.53611e-06
       230450   2.53587e-06
       230455   2.53563e-06
       230460   2.53539e-06
       230465   2.53515e-06
       230470    2.5349e-06
       230475   2.53466e-06
       230480   2.53442e-06
       230485   2.53418e-06
       230490   2.53394e-06
       230495    2.5337e-06
       230500   2.53345e-06
       230505   2.53321e-06
       230510   2.53297e-06
       230515   2.53273e-06
       230520   2.53249e-06
       230525   2.53225e-06
       230530     2.532e-06
       230535   2.53176e-06
       230540   2.53152e-06
       230545   2.53128e-06
       230550   2.53104e-06
       230555    2.5308e-06
       230560   2.53056e-06
       230565   2.53031e-06
       230570   2.53007e-06
       230575   2.52983e-06
       230580   2.52959e-06
       230585   2.52935e-06
       230590   2.52911e-06
       230595   2.52887e-06
       230600   2.52863e-06
       230605   2.52838e-06
       230610   2.52814e-06
       230615    2.5279e-06
       230620   2.52766e-06
       230625   2.52742e-06
       230630   2.52718e-06
       230635   2.52694e-06
       230640    2.5267e-06
       230645   2.52646e-06
       230650   2.52622e-06
       230655   2.52597e-06
       230660   2.52573e-06
       230665   2.52549e-06
       230670   2.52525e-06
       230675   2.52501e-06
       230680   2.52477e-06
       230685   2.52453e-06
       230690   2.52429e-06
       230695   2.52405e-06
       230700   2.52381e-06
       230705   2.52357e-06
       230710   2.52333e-06
       230715   2.52309e-06
       230720   2.52285e-06
       230725   2.52261e-06
       230730   2.52237e-06
       230735   2.52213e-06
       230740   2.52189e-06
       230745   2.52165e-06
       230750   2.52141e-06
       230755   2.52116e-06
       230760   2.52092e-06
       230765   2.52068e-06
       230770   2.52044e-06
       230775    2.5202e-06
       230780   2.51996e-06
       230785   2.51972e-06
       230790   2.51948e-06
       230795   2.51924e-06
       230800     2.519e-06
       230805   2.51876e-06
       230810   2.51852e-06
       230815   2.51828e-06
       230820   2.51805e-06
       230825   2.51781e-06
       230830   2.51757e-06
       230835   2.51733e-06
       230840   2.51709e-06
       230845   2.51685e-06
       230850   2.51661e-06
       230855   2.51637e-06
       230860   2.51613e-06
       230865   2.51589e-06
       230870   2.51565e-06
       230875   2.51541e-06
       230880   2.51517e-06
       230885   2.51493e-06
       230890   2.51469e-06
       230895   2.51445e-06
       230900   2.51421e-06
       230905   2.51397e-06
       230910   2.51373e-06
       230915   2.51349e-06
       230920   2.51326e-06
       230925   2.51302e-06
       230930   2.51278e-06
       230935   2.51254e-06
       230940    2.5123e-06
       230945   2.51206e-06
       230950   2.51182e-06
       230955   2.51158e-06
       230960   2.51134e-06
       230965    2.5111e-06
       230970   2.51086e-06
       230975   2.51063e-06
       230980   2.51039e-06
       230985   2.51015e-06
       230990   2.50991e-06
       230995   2.50967e-06
       231000   2.50943e-06
       231005   2.50919e-06
       231010   2.50895e-06
       231015   2.50872e-06
       231020   2.50848e-06
       231025   2.50824e-06
       231030     2.508e-06
       231035   2.50776e-06
       231040   2.50752e-06
       231045   2.50729e-06
       231050   2.50705e-06
       231055   2.50681e-06
       231060   2.50657e-06
       231065   2.50633e-06
       231070   2.50609e-06
       231075   2.50586e-06
       231080   2.50562e-06
       231085   2.50538e-06
       231090   2.50514e-06
       231095    2.5049e-06
       231100   2.50466e-06
       231105   2.50443e-06
       231110   2.50419e-06
       231115   2.50395e-06
       231120   2.50371e-06
       231125   2.50347e-06
       231130   2.50324e-06
       231135     2.503e-06
       231140   2.50276e-06
       231145   2.50252e-06
       231150   2.50228e-06
       231155   2.50205e-06
       231160   2.50181e-06
       231165   2.50157e-06
       231170   2.50133e-06
       231175    2.5011e-06
       231180   2.50086e-06
       231185   2.50062e-06
       231190   2.50038e-06
       231195   2.50015e-06
       231200   2.49991e-06
       231205   2.49967e-06
       231210   2.49943e-06
       231215    2.4992e-06
       231220   2.49896e-06
       231225   2.49872e-06
       231230   2.49848e-06
       231235   2.49825e-06
       231240   2.49801e-06
       231245   2.49777e-06
       231250   2.49753e-06
       231255    2.4973e-06
       231260   2.49706e-06
       231265   2.49682e-06
       231270   2.49659e-06
       231275   2.49635e-06
       231280   2.49611e-06
       231285   2.49587e-06
       231290   2.49564e-06
       231295    2.4954e-06
       231300   2.49516e-06
       231305   2.49493e-06
       231310   2.49469e-06
       231315   2.49445e-06
       231320   2.49422e-06
       231325   2.49398e-06
       231330   2.49374e-06
       231335   2.49351e-06
       231340   2.49327e-06
       231345   2.49303e-06
       231350    2.4928e-06
       231355   2.49256e-06
       231360   2.49232e-06
       231365   2.49209e-06
       231370   2.49185e-06
       231375   2.49161e-06
       231380   2.49138e-06
       231385   2.49114e-06
       231390    2.4909e-06
       231395   2.49067e-06
       231400   2.49043e-06
       231405    2.4902e-06
       231410   2.48996e-06
       231415   2.48972e-06
       231420   2.48949e-06
       231425   2.48925e-06
       231430   2.48901e-06
       231435   2.48878e-06
       231440   2.48854e-06
       231445   2.48831e-06
       231450   2.48807e-06
       231455   2.48783e-06
       231460    2.4876e-06
       231465   2.48736e-06
       231470   2.48713e-06
       231475   2.48689e-06
       231480   2.48665e-06
       231485   2.48642e-06
       231490   2.48618e-06
       231495   2.48595e-06
       231500   2.48571e-06
       231505   2.48548e-06
       231510   2.48524e-06
       231515     2.485e-06
       231520   2.48477e-06
       231525   2.48453e-06
       231530    2.4843e-06
       231535   2.48406e-06
       231540   2.48383e-06
       231545   2.48359e-06
       231550   2.48336e-06
       231555   2.48312e-06
       231560   2.48288e-06
       231565   2.48265e-06
       231570   2.48241e-06
       231575   2.48218e-06
       231580   2.48194e-06
       231585   2.48171e-06
       231590   2.48147e-06
       231595   2.48124e-06
       231600     2.481e-06
       231605   2.48077e-06
       231610   2.48053e-06
       231615    2.4803e-06
       231620   2.48006e-06
       231625   2.47983e-06
       231630   2.47959e-06
       231635   2.47936e-06
       231640   2.47912e-06
       231645   2.47889e-06
       231650   2.47865e-06
       231655   2.47842e-06
       231660   2.47818e-06
       231665   2.47795e-06
       231670   2.47771e-06
       231675   2.47748e-06
       231680   2.47724e-06
       231685   2.47701e-06
       231690   2.47678e-06
       231695   2.47654e-06
       231700   2.47631e-06
       231705   2.47607e-06
       231710   2.47584e-06
       231715    2.4756e-06
       231720   2.47537e-06
       231725   2.47513e-06
       231730    2.4749e-06
       231735   2.47467e-06
       231740   2.47443e-06
       231745    2.4742e-06
       231750   2.47396e-06
       231755   2.47373e-06
       231760   2.47349e-06
       231765   2.47326e-06
       231770   2.47303e-06
       231775   2.47279e-06
       231780   2.47256e-06
       231785   2.47232e-06
       231790   2.47209e-06
       231795   2.47186e-06
       231800   2.47162e-06
       231805   2.47139e-06
       231810   2.47115e-06
       231815   2.47092e-06
       231820   2.47069e-06
       231825   2.47045e-06
       231830   2.47022e-06
       231835   2.46998e-06
       231840   2.46975e-06
       231845   2.46952e-06
       231850   2.46928e-06
       231855   2.46905e-06
       231860   2.46882e-06
       231865   2.46858e-06
       231870   2.46835e-06
       231875   2.46812e-06
       231880   2.46788e-06
       231885   2.46765e-06
       231890   2.46741e-06
       231895   2.46718e-06
       231900   2.46695e-06
       231905   2.46671e-06
       231910   2.46648e-06
       231915   2.46625e-06
       231920   2.46601e-06
       231925   2.46578e-06
       231930   2.46555e-06
       231935   2.46532e-06
       231940   2.46508e-06
       231945   2.46485e-06
       231950   2.46462e-06
       231955   2.46438e-06
       231960   2.46415e-06
       231965   2.46392e-06
       231970   2.46368e-06
       231975   2.46345e-06
       231980   2.46322e-06
       231985   2.46299e-06
       231990   2.46275e-06
       231995   2.46252e-06
       232000   2.46229e-06
       232005   2.46205e-06
       232010   2.46182e-06
       232015   2.46159e-06
       232020   2.46136e-06
       232025   2.46112e-06
       232030   2.46089e-06
       232035   2.46066e-06
       232040   2.46043e-06
       232045   2.46019e-06
       232050   2.45996e-06
       232055   2.45973e-06
       232060    2.4595e-06
       232065   2.45926e-06
       232070   2.45903e-06
       232075    2.4588e-06
       232080   2.45857e-06
       232085   2.45833e-06
       232090    2.4581e-06
       232095   2.45787e-06
       232100   2.45764e-06
       232105    2.4574e-06
       232110   2.45717e-06
       232115   2.45694e-06
       232120   2.45671e-06
       232125   2.45648e-06
       232130   2.45624e-06
       232135   2.45601e-06
       232140   2.45578e-06
       232145   2.45555e-06
       232150   2.45532e-06
       232155   2.45508e-06
       232160   2.45485e-06
       232165   2.45462e-06
       232170   2.45439e-06
       232175   2.45416e-06
       232180   2.45393e-06
       232185   2.45369e-06
       232190   2.45346e-06
       232195   2.45323e-06
       232200     2.453e-06
       232205   2.45277e-06
       232210   2.45254e-06
       232215    2.4523e-06
       232220   2.45207e-06
       232225   2.45184e-06
       232230   2.45161e-06
       232235   2.45138e-06
       232240   2.45115e-06
       232245   2.45092e-06
       232250   2.45068e-06
       232255   2.45045e-06
       232260   2.45022e-06
       232265   2.44999e-06
       232270   2.44976e-06
       232275   2.44953e-06
       232280    2.4493e-06
       232285   2.44907e-06
       232290   2.44883e-06
       232295    2.4486e-06
       232300   2.44837e-06
       232305   2.44814e-06
       232310   2.44791e-06
       232315   2.44768e-06
       232320   2.44745e-06
       232325   2.44722e-06
       232330   2.44699e-06
       232335   2.44676e-06
       232340   2.44652e-06
       232345   2.44629e-06
       232350   2.44606e-06
       232355   2.44583e-06
       232360    2.4456e-06
       232365   2.44537e-06
       232370   2.44514e-06
       232375   2.44491e-06
       232380   2.44468e-06
       232385   2.44445e-06
       232390   2.44422e-06
       232395   2.44399e-06
       232400   2.44376e-06
       232405   2.44353e-06
       232410    2.4433e-06
       232415   2.44307e-06
       232420   2.44284e-06
       232425    2.4426e-06
       232430   2.44237e-06
       232435   2.44214e-06
       232440   2.44191e-06
       232445   2.44168e-06
       232450   2.44145e-06
       232455   2.44122e-06
       232460   2.44099e-06
       232465   2.44076e-06
       232470   2.44053e-06
       232475    2.4403e-06
       232480   2.44007e-06
       232485   2.43984e-06
       232490   2.43961e-06
       232495   2.43938e-06
       232500   2.43915e-06
       232505   2.43892e-06
       232510   2.43869e-06
       232515   2.43846e-06
       232520   2.43823e-06
       232525     2.438e-06
       232530   2.43777e-06
       232535   2.43754e-06
       232540   2.43731e-06
       232545   2.43709e-06
       232550   2.43686e-06
       232555   2.43663e-06
       232560    2.4364e-06
       232565   2.43617e-06
       232570   2.43594e-06
       232575   2.43571e-06
       232580   2.43548e-06
       232585   2.43525e-06
       232590   2.43502e-06
       232595   2.43479e-06
       232600   2.43456e-06
       232605   2.43433e-06
       232610    2.4341e-06
       232615   2.43387e-06
       232620   2.43364e-06
       232625   2.43341e-06
       232630   2.43319e-06
       232635   2.43296e-06
       232640   2.43273e-06
       232645    2.4325e-06
       232650   2.43227e-06
       232655   2.43204e-06
       232660   2.43181e-06
       232665   2.43158e-06
       232670   2.43135e-06
       232675   2.43112e-06
       232680    2.4309e-06
       232685   2.43067e-06
       232690   2.43044e-06
       232695   2.43021e-06
       232700   2.42998e-06
       232705   2.42975e-06
       232710   2.42952e-06
       232715   2.42929e-06
       232720   2.42907e-06
       232725   2.42884e-06
       232730   2.42861e-06
       232735   2.42838e-06
       232740   2.42815e-06
       232745   2.42792e-06
       232750   2.42769e-06
       232755   2.42747e-06
       232760   2.42724e-06
       232765   2.42701e-06
       232770   2.42678e-06
       232775   2.42655e-06
       232780   2.42632e-06
       232785    2.4261e-06
       232790   2.42587e-06
       232795   2.42564e-06
       232800   2.42541e-06
       232805   2.42518e-06
       232810   2.42495e-06
       232815   2.42473e-06
       232820    2.4245e-06
       232825   2.42427e-06
       232830   2.42404e-06
       232835   2.42381e-06
       232840   2.42359e-06
       232845   2.42336e-06
       232850   2.42313e-06
       232855    2.4229e-06
       232860   2.42267e-06
       232865   2.42245e-06
       232870   2.42222e-06
       232875   2.42199e-06
       232880   2.42176e-06
       232885   2.42154e-06
       232890   2.42131e-06
       232895   2.42108e-06
       232900   2.42085e-06
       232905   2.42063e-06
       232910    2.4204e-06
       232915   2.42017e-06
       232920   2.41994e-06
       232925   2.41972e-06
       232930   2.41949e-06
       232935   2.41926e-06
       232940   2.41903e-06
       232945   2.41881e-06
       232950   2.41858e-06
       232955   2.41835e-06
       232960   2.41812e-06
       232965    2.4179e-06
       232970   2.41767e-06
       232975   2.41744e-06
       232980   2.41722e-06
       232985   2.41699e-06
       232990   2.41676e-06
       232995   2.41653e-06
       233000   2.41631e-06
       233005   2.41608e-06
       233010   2.41585e-06
       233015   2.41563e-06
       233020    2.4154e-06
       233025   2.41517e-06
       233030   2.41494e-06
       233035   2.41472e-06
       233040   2.41449e-06
       233045   2.41426e-06
       233050   2.41404e-06
       233055   2.41381e-06
       233060   2.41358e-06
       233065   2.41336e-06
       233070   2.41313e-06
       233075    2.4129e-06
       233080   2.41268e-06
       233085   2.41245e-06
       233090   2.41222e-06
       233095     2.412e-06
       233100   2.41177e-06
       233105   2.41154e-06
       233110   2.41132e-06
       233115   2.41109e-06
       233120   2.41087e-06
       233125   2.41064e-06
       233130   2.41041e-06
       233135   2.41019e-06
       233140   2.40996e-06
       233145   2.40973e-06
       233150   2.40951e-06
       233155   2.40928e-06
       233160   2.40906e-06
       233165   2.40883e-06
       233170    2.4086e-06
       233175   2.40838e-06
       233180   2.40815e-06
       233185   2.40793e-06
       233190    2.4077e-06
       233195   2.40747e-06
       233200   2.40725e-06
       233205   2.40702e-06
       233210    2.4068e-06
       233215   2.40657e-06
       233220   2.40634e-06
       233225   2.40612e-06
       233230   2.40589e-06
       233235   2.40567e-06
       233240   2.40544e-06
       233245   2.40522e-06
       233250   2.40499e-06
       233255   2.40476e-06
       233260   2.40454e-06
       233265   2.40431e-06
       233270   2.40409e-06
       233275   2.40386e-06
       233280   2.40364e-06
       233285   2.40341e-06
       233290   2.40319e-06
       233295   2.40296e-06
       233300   2.40273e-06
       233305   2.40251e-06
       233310   2.40228e-06
       233315   2.40206e-06
       233320   2.40183e-06
       233325   2.40161e-06
       233330   2.40138e-06
       233335   2.40116e-06
       233340   2.40093e-06
       233345   2.40071e-06
       233350   2.40048e-06
       233355   2.40026e-06
       233360   2.40003e-06
       233365   2.39981e-06
       233370   2.39958e-06
       233375   2.39936e-06
       233380   2.39913e-06
       233385   2.39891e-06
       233390   2.39868e-06
       233395   2.39846e-06
       233400   2.39823e-06
       233405   2.39801e-06
       233410   2.39778e-06
       233415   2.39756e-06
       233420   2.39733e-06
       233425   2.39711e-06
       233430   2.39688e-06
       233435   2.39666e-06
       233440   2.39644e-06
       233445   2.39621e-06
       233450   2.39599e-06
       233455   2.39576e-06
       233460   2.39554e-06
       233465   2.39531e-06
       233470   2.39509e-06
       233475   2.39486e-06
       233480   2.39464e-06
       233485   2.39442e-06
       233490   2.39419e-06
       233495   2.39397e-06
       233500   2.39374e-06
       233505   2.39352e-06
       233510   2.39329e-06
       233515   2.39307e-06
       233520   2.39285e-06
       233525   2.39262e-06
       233530    2.3924e-06
       233535   2.39217e-06
       233540   2.39195e-06
       233545   2.39173e-06
       233550    2.3915e-06
       233555   2.39128e-06
       233560   2.39105e-06
       233565   2.39083e-06
       233570   2.39061e-06
       233575   2.39038e-06
       233580   2.39016e-06
       233585   2.38993e-06
       233590   2.38971e-06
       233595   2.38949e-06
       233600   2.38926e-06
       233605   2.38904e-06
       233610   2.38882e-06
       233615   2.38859e-06
       233620   2.38837e-06
       233625   2.38815e-06
       233630   2.38792e-06
       233635    2.3877e-06
       233640   2.38747e-06
       233645   2.38725e-06
       233650   2.38703e-06
       233655    2.3868e-06
       233660   2.38658e-06
       233665   2.38636e-06
       233670   2.38613e-06
       233675   2.38591e-06
       233680   2.38569e-06
       233685   2.38546e-06
       233690   2.38524e-06
       233695   2.38502e-06
       233700    2.3848e-06
       233705   2.38457e-06
       233710   2.38435e-06
       233715   2.38413e-06
       233720    2.3839e-06
       233725   2.38368e-06
       233730   2.38346e-06
       233735   2.38323e-06
       233740   2.38301e-06
       233745   2.38279e-06
       233750   2.38257e-06
       233755   2.38234e-06
       233760   2.38212e-06
       233765    2.3819e-06
       233770   2.38167e-06
       233775   2.38145e-06
       233780   2.38123e-06
       233785   2.38101e-06
       233790   2.38078e-06
       233795   2.38056e-06
       233800   2.38034e-06
       233805   2.38012e-06
       233810   2.37989e-06
       233815   2.37967e-06
       233820   2.37945e-06
       233825   2.37923e-06
       233830     2.379e-06
       233835   2.37878e-06
       233840   2.37856e-06
       233845   2.37834e-06
       233850   2.37811e-06
       233855   2.37789e-06
       233860   2.37767e-06
       233865   2.37745e-06
       233870   2.37722e-06
       233875     2.377e-06
       233880   2.37678e-06
       233885   2.37656e-06
       233890   2.37634e-06
       233895   2.37611e-06
       233900   2.37589e-06
       233905   2.37567e-06
       233910   2.37545e-06
       233915   2.37523e-06
       233920     2.375e-06
       233925   2.37478e-06
       233930   2.37456e-06
       233935   2.37434e-06
       233940   2.37412e-06
       233945   2.37389e-06
       233950   2.37367e-06
       233955   2.37345e-06
       233960   2.37323e-06
       233965   2.37301e-06
       233970   2.37279e-06
       233975   2.37256e-06
       233980   2.37234e-06
       233985   2.37212e-06
       233990    2.3719e-06
       233995   2.37168e-06
       234000   2.37146e-06
       234005   2.37124e-06
       234010   2.37101e-06
       234015   2.37079e-06
       234020   2.37057e-06
       234025   2.37035e-06
       234030   2.37013e-06
       234035   2.36991e-06
       234040   2.36969e-06
       234045   2.36946e-06
       234050   2.36924e-06
       234055   2.36902e-06
       234060    2.3688e-06
       234065   2.36858e-06
       234070   2.36836e-06
       234075   2.36814e-06
       234080   2.36792e-06
       234085    2.3677e-06
       234090   2.36747e-06
       234095   2.36725e-06
       234100   2.36703e-06
       234105   2.36681e-06
       234110   2.36659e-06
       234115   2.36637e-06
       234120   2.36615e-06
       234125   2.36593e-06
       234130   2.36571e-06
       234135   2.36549e-06
       234140   2.36527e-06
       234145   2.36505e-06
       234150   2.36482e-06
       234155    2.3646e-06
       234160   2.36438e-06
       234165   2.36416e-06
       234170   2.36394e-06
       234175   2.36372e-06
       234180    2.3635e-06
       234185   2.36328e-06
       234190   2.36306e-06
       234195   2.36284e-06
       234200   2.36262e-06
       234205    2.3624e-06
       234210   2.36218e-06
       234215   2.36196e-06
       234220   2.36174e-06
       234225   2.36152e-06
       234230    2.3613e-06
       234235   2.36108e-06
       234240   2.36086e-06
       234245   2.36064e-06
       234250   2.36042e-06
       234255    2.3602e-06
       234260   2.35998e-06
       234265   2.35976e-06
       234270   2.35954e-06
       234275   2.35932e-06
       234280    2.3591e-06
       234285   2.35888e-06
       234290   2.35866e-06
       234295   2.35844e-06
       234300   2.35822e-06
       234305     2.358e-06
       234310   2.35778e-06
       234315   2.35756e-06
       234320   2.35734e-06
       234325   2.35712e-06
       234330    2.3569e-06
       234335   2.35668e-06
       234340   2.35646e-06
       234345   2.35624e-06
       234350   2.35602e-06
       234355    2.3558e-06
       234360   2.35558e-06
       234365   2.35536e-06
       234370   2.35514e-06
       234375   2.35492e-06
       234380    2.3547e-06
       234385   2.35448e-06
       234390   2.35426e-06
       234395   2.35405e-06
       234400   2.35383e-06
       234405   2.35361e-06
       234410   2.35339e-06
       234415   2.35317e-06
       234420   2.35295e-06
       234425   2.35273e-06
       234430   2.35251e-06
       234435   2.35229e-06
       234440   2.35207e-06
       234445   2.35185e-06
       234450   2.35163e-06
       234455   2.35142e-06
       234460    2.3512e-06
       234465   2.35098e-06
       234470   2.35076e-06
       234475   2.35054e-06
       234480   2.35032e-06
       234485    2.3501e-06
       234490   2.34988e-06
       234495   2.34966e-06
       234500   2.34945e-06
       234505   2.34923e-06
       234510   2.34901e-06
       234515   2.34879e-06
       234520   2.34857e-06
       234525   2.34835e-06
       234530   2.34813e-06
       234535   2.34791e-06
       234540    2.3477e-06
       234545   2.34748e-06
       234550   2.34726e-06
       234555   2.34704e-06
       234560   2.34682e-06
       234565    2.3466e-06
       234570   2.34639e-06
       234575   2.34617e-06
       234580   2.34595e-06
       234585   2.34573e-06
       234590   2.34551e-06
       234595   2.34529e-06
       234600   2.34508e-06
       234605   2.34486e-06
       234610   2.34464e-06
       234615   2.34442e-06
       234620    2.3442e-06
       234625   2.34398e-06
       234630   2.34377e-06
       234635   2.34355e-06
       234640   2.34333e-06
       234645   2.34311e-06
       234650   2.34289e-06
       234655   2.34268e-06
       234660   2.34246e-06
       234665   2.34224e-06
       234670   2.34202e-06
       234675   2.34181e-06
       234680   2.34159e-06
       234685   2.34137e-06
       234690   2.34115e-06
       234695   2.34093e-06
       234700   2.34072e-06
       234705    2.3405e-06
       234710   2.34028e-06
       234715   2.34006e-06
       234720   2.33985e-06
       234725   2.33963e-06
       234730   2.33941e-06
       234735   2.33919e-06
       234740   2.33898e-06
       234745   2.33876e-06
       234750   2.33854e-06
       234755   2.33832e-06
       234760   2.33811e-06
       234765   2.33789e-06
       234770   2.33767e-06
       234775   2.33745e-06
       234780   2.33724e-06
       234785   2.33702e-06
       234790    2.3368e-06
       234795   2.33659e-06
       234800   2.33637e-06
       234805   2.33615e-06
       234810   2.33593e-06
       234815   2.33572e-06
       234820    2.3355e-06
       234825   2.33528e-06
       234830   2.33507e-06
       234835   2.33485e-06
       234840   2.33463e-06
       234845   2.33441e-06
       234850    2.3342e-06
       234855   2.33398e-06
       234860   2.33376e-06
       234865   2.33355e-06
       234870   2.33333e-06
       234875   2.33311e-06
       234880    2.3329e-06
       234885   2.33268e-06
       234890   2.33246e-06
       234895   2.33225e-06
       234900   2.33203e-06
       234905   2.33181e-06
       234910    2.3316e-06
       234915   2.33138e-06
       234920   2.33116e-06
       234925   2.33095e-06
       234930   2.33073e-06
       234935   2.33051e-06
       234940    2.3303e-06
       234945   2.33008e-06
       234950   2.32987e-06
       234955   2.32965e-06
       234960   2.32943e-06
       234965   2.32922e-06
       234970     2.329e-06
       234975   2.32878e-06
       234980   2.32857e-06
       234985   2.32835e-06
       234990   2.32814e-06
       234995   2.32792e-06
       235000    2.3277e-06
       235005   2.32749e-06
       235010   2.32727e-06
       235015   2.32706e-06
       235020   2.32684e-06
       235025   2.32662e-06
       235030   2.32641e-06
       235035   2.32619e-06
       235040   2.32598e-06
       235045   2.32576e-06
       235050   2.32554e-06
       235055   2.32533e-06
       235060   2.32511e-06
       235065    2.3249e-06
       235070   2.32468e-06
       235075   2.32447e-06
       235080   2.32425e-06
       235085   2.32403e-06
       235090   2.32382e-06
       235095    2.3236e-06
       235100   2.32339e-06
       235105   2.32317e-06
       235110   2.32296e-06
       235115   2.32274e-06
       235120   2.32253e-06
       235125   2.32231e-06
       235130   2.32209e-06
       235135   2.32188e-06
       235140   2.32166e-06
       235145   2.32145e-06
       235150   2.32123e-06
       235155   2.32102e-06
       235160    2.3208e-06
       235165   2.32059e-06
       235170   2.32037e-06
       235175   2.32016e-06
       235180   2.31994e-06
       235185   2.31973e-06
       235190   2.31951e-06
       235195    2.3193e-06
       235200   2.31908e-06
       235205   2.31887e-06
       235210   2.31865e-06
       235215   2.31844e-06
       235220   2.31822e-06
       235225   2.31801e-06
       235230   2.31779e-06
       235235   2.31758e-06
       235240   2.31736e-06
       235245   2.31715e-06
       235250   2.31693e-06
       235255   2.31672e-06
       235260    2.3165e-06
       235265   2.31629e-06
       235270   2.31607e-06
       235275   2.31586e-06
       235280   2.31564e-06
       235285   2.31543e-06
       235290   2.31522e-06
       235295     2.315e-06
       235300   2.31479e-06
       235305   2.31457e-06
       235310   2.31436e-06
       235315   2.31414e-06
       235320   2.31393e-06
       235325   2.31371e-06
       235330    2.3135e-06
       235335   2.31329e-06
       235340   2.31307e-06