# Probe 0 (0.05 0.05 0.005)
#       Probe             0
#        Time
       230005       1.05674
       230010       1.05674
       230015       1.05673
       230020       1.05673
       230025       1.05672
       230030       1.05672
       230035       1.05671
       230040       1.05671
       230045        1.0567
       230050        1.0567
       230055       1.05669
       230060       1.05668
       230065       1.05668
       230070       1.05667
       230075       1.05667
       230080       1.05666
       230085       1.05666
       230090       1.05665
       230095       1.05665
       230100       1.05664
       230105       1.05664
       230110       1.05663
       230115       1.05662
       230120       1.05662
       230125       1.05661
       230130       1.05661
       230135        1.0566
       230140        1.0566
       230145       1.05659
       230150       1.05659
       230155       1.05658
       230160       1.05658
       230165       1.05657
       230170       1.05657
       230175       1.05656
       230180       1.05655
       230185       1.05655
       230190       1.05654
       230195       1.05654
       230200       1.05653
       230205       1.05653
       230210       1.05652
       230215       1.05652
       230220       1.05651
       230225       1.05651
       230230        1.0565
       230235        1.0565
       230240       1.05649
       230245       1.05648
       230250       1.05648
       230255       1.05647
       230260       1.05647
       230265       1.05646
       230270       1.05646
       230275       1.05645
       230280       1.05645
       230285       1.05644
       230290       1.05644
       230295       1.05643
       230300       1.05642
       230305       1.05642
       230310       1.05641
       230315       1.05641
       230320        1.0564
       230325        1.0564
       230330       1.05639
       230335       1.05639
       230340       1.05638
       230345       1.05638
       230350       1.05637
       230355       1.05637
       230360       1.05636
       230365       1.05635
       230370       1.05635
       230375       1.05634
       230380       1.05634
       230385       1.05633
       230390       1.05633
       230395       1.05632
       230400       1.05632
       230405       1.05631
       230410       1.05631
       230415        1.0563
       230420        1.0563
       230425       1.05629
       230430       1.05629
       230435       1.05628
       230440       1.05627
       230445       1.05627
       230450       1.05626
       230455       1.05626
       230460       1.05625
       230465       1.05625
       230470       1.05624
       230475       1.05624
       230480       1.05623
       230485       1.05623
       230490       1.05622
       230495       1.05622
       230500       1.05621
       230505        1.0562
       230510        1.0562
       230515       1.05619
       230520       1.05619
       230525       1.05618
       230530       1.05618
       230535       1.05617
       230540       1.05617
       230545       1.05616
       230550       1.05616
       230555       1.05615
       230560       1.05615
       230565       1.05614
       230570       1.05613
       230575       1.05613
       230580       1.05612
       230585       1.05612
       230590       1.05611
       230595       1.05611
       230600        1.0561
       230605        1.0561
       230610       1.05609
       230615       1.05609
       230620       1.05608
       230625       1.05608
       230630       1.05607
       230635       1.05607
       230640       1.05606
       230645       1.05605
       230650       1.05605
       230655       1.05604
       230660       1.05604
       230665       1.05603
       230670       1.05603
       230675       1.05602
       230680       1.05602
       230685       1.05601
       230690       1.05601
       230695         1.056
       230700         1.056
       230705       1.05599
       230710       1.05599
       230715       1.05598
       230720       1.05597
       230725       1.05597
       230730       1.05596
       230735       1.05596
       230740       1.05595
       230745       1.05595
       230750       1.05594
       230755       1.05594
       230760       1.05593
       230765       1.05593
       230770       1.05592
       230775       1.05592
       230780       1.05591
       230785       1.05591
       230790        1.0559
       230795       1.05589
       230800       1.05589
       230805       1.05588
       230810       1.05588
       230815       1.05587
       230820       1.05587
       230825       1.05586
       230830       1.05586
       230835       1.05585
       230840       1.05585
       230845       1.05584
       230850       1.05584
       230855       1.05583
       230860       1.05583
       230865       1.05582
       230870       1.05581
       230875       1.05581
       230880        1.0558
       230885        1.0558
       230890       1.05579
       230895       1.05579
       230900       1.05578
       230905       1.05578
       230910       1.05577
       230915       1.05577
       230920       1.05576
       230925       1.05576
       230930       1.05575
       230935       1.05575
       230940       1.05574
       230945       1.05574
       230950       1.05573
       230955       1.05572
       230960       1.05572
       230965       1.05571
       230970       1.05571
       230975        1.0557
       230980        1.0557
       230985       1.05569
       230990       1.05569
       230995       1.05568
       231000       1.05568
       231005       1.05567
       231010       1.05567
       231015       1.05566
       231020       1.05566
       231025       1.05565
       231030       1.05565
       231035       1.05564
       231040       1.05563
       231045       1.05563
       231050       1.05562
       231055       1.05562
       231060       1.05561
       231065       1.05561
       231070        1.0556
       231075        1.0556
       231080       1.05559
       231085       1.05559
       231090       1.05558
       231095       1.05558
       231100       1.05557
       231105       1.05557
       231110       1.05556
       231115       1.05556
       231120       1.05555
       231125       1.05554
       231130       1.05554
       231135       1.05553
       231140       1.05553
       231145       1.05552
       231150       1.05552
       231155       1.05551
       231160       1.05551
       231165        1.0555
       231170        1.0555
       231175       1.05549
       231180       1.05549
       231185       1.05548
       231190       1.05548
       231195       1.05547
       231200       1.05547
       231205       1.05546
       231210       1.05546
       231215       1.05545
       231220       1.05544
       231225       1.05544
       231230       1.05543
       231235       1.05543
       231240       1.05542
       231245       1.05542
       231250       1.05541
       231255       1.05541
       231260        1.0554
       231265        1.0554
       231270       1.05539
       231275       1.05539
       231280       1.05538
       231285       1.05538
       231290       1.05537
       231295       1.05537
       231300       1.05536
       231305       1.05536
       231310       1.05535
       231315       1.05534
       231320       1.05534
       231325       1.05533
       231330       1.05533
       231335       1.05532
       231340       1.05532
       231345       1.05531
       231350       1.05531
       231355        1.0553
       231360        1.0553
       231365       1.05529
       231370       1.05529
       231375       1.05528
       231380       1.05528
       231385       1.05527
       231390       1.05527
       231395       1.05526
       231400       1.05526
       231405       1.05525
       231410       1.05524
       231415       1.05524
       231420       1.05523
       231425       1.05523
       231430       1.05522
       231435       1.05522
       231440       1.05521
       231445       1.05521
       231450        1.0552
       231455        1.0552
       231460       1.05519
       231465       1.05519
       231470       1.05518
       231475       1.05518
       231480       1.05517
       231485       1.05517
       231490       1.05516
       231495       1.05516
       231500       1.05515
       231505       1.05515
       231510       1.05514
       231515       1.05513
       231520       1.05513
       231525       1.05512
       231530       1.05512
       231535       1.05511
       231540       1.05511
       231545        1.0551
       231550        1.0551
       231555       1.05509
       231560       1.05509
       231565       1.05508
       231570       1.05508
       231575       1.05507
       231580       1.05507
       231585       1.05506
       231590       1.05506
       231595       1.05505
       231600       1.05505
       231605       1.05504
       231610       1.05504
       231615       1.05503
       231620       1.05503
       231625       1.05502
       231630       1.05501
       231635       1.05501
       231640         1.055
       231645         1.055
       231650       1.05499
       231655       1.05499
       231660       1.05498
       231665       1.05498
       231670       1.05497
       231675       1.05497
       231680       1.05496
       231685       1.05496
       231690       1.05495
       231695       1.05495
       231700       1.05494
       231705       1.05494
       231710       1.05493
       231715       1.05493
       231720       1.05492
       231725       1.05492
       231730       1.05491
       231735       1.05491
       231740        1.0549
       231745        1.0549
       231750       1.05489
       231755       1.05488
       231760       1.05488
       231765       1.05487
       231770       1.05487
       231775       1.05486
       231780       1.05486
       231785       1.05485
       231790       1.05485
       231795       1.05484
       231800       1.05484
       231805       1.05483
       231810       1.05483
       231815       1.05482
       231820       1.05482
       231825       1.05481
       231830       1.05481
       231835        1.0548
       231840        1.0548
       231845       1.05479
       231850       1.05479
       231855       1.05478
       231860       1.05478
       231865       1.05477
       231870       1.05477
       231875       1.05476
       231880       1.05476
       231885       1.05475
       231890       1.05474
       231895       1.05474
       231900       1.05473
       231905       1.05473
       231910       1.05472
       231915       1.05472
       231920       1.05471
       231925       1.05471
       231930        1.0547
       231935        1.0547
       231940       1.05469
       231945       1.05469
       231950       1.05468
       231955       1.05468
       231960       1.05467
       231965       1.05467
       231970       1.05466
       231975       1.05466
       231980       1.05465
       231985       1.05465
       231990       1.05464
       231995       1.05464
       232000       1.05463
       232005       1.05463
       232010       1.05462
       232015       1.05462
       232020       1.05461
       232025       1.05461
       232030        1.0546
       232035       1.05459
       232040       1.05459
       232045       1.05458
       232050       1.05458
       232055       1.05457
       232060       1.05457
       232065       1.05456
       232070       1.05456
       232075       1.05455
       232080       1.05455
       232085       1.05454
       232090       1.05454
       232095       1.05453
       232100       1.05453
       232105       1.05452
       232110       1.05452
       232115       1.05451
       232120       1.05451
       232125        1.0545
       232130        1.0545
       232135       1.05449
       232140       1.05449
       232145       1.05448
       232150       1.05448
       232155       1.05447
       232160       1.05447
       232165       1.05446
       232170       1.05446
       232175       1.05445
       232180       1.05445
       232185       1.05444
       232190       1.05444
       232195       1.05443
       232200       1.05442
       232205       1.05442
       232210       1.05441
       232215       1.05441
       232220        1.0544
       232225        1.0544
       232230       1.05439
       232235       1.05439
       232240       1.05438
       232245       1.05438
       232250       1.05437
       232255       1.05437
       232260       1.05436
       232265       1.05436
       232270       1.05435
       232275       1.05435
       232280       1.05434
       232285       1.05434
       232290       1.05433
       232295       1.05433
       232300       1.05432
       232305       1.05432
       232310       1.05431
       232315       1.05431
       232320        1.0543
       232325        1.0543
       232330       1.05429
       232335       1.05429
       232340       1.05428
       232345       1.05428
       232350       1.05427
       232355       1.05427
       232360       1.05426
       232365       1.05426
       232370       1.05425
       232375       1.05425
       232380       1.05424
       232385       1.05424
       232390       1.05423
       232395       1.05422
       232400       1.05422
       232405       1.05421
       232410       1.05421
       232415        1.0542
       232420        1.0542
       232425       1.05419
       232430       1.05419
       232435       1.05418
       232440       1.05418
       232445       1.05417
       232450       1.05417
       232455       1.05416
       232460       1.05416
       232465       1.05415
       232470       1.05415
       232475       1.05414
       232480       1.05414
       232485       1.05413
       232490       1.05413
       232495       1.05412
       232500       1.05412
       232505       1.05411
       232510       1.05411
       232515        1.0541
       232520        1.0541
       232525       1.05409
       232530       1.05409
       232535       1.05408
       232540       1.05408
       232545       1.05407
       232550       1.05407
       232555       1.05406
       232560       1.05406
       232565       1.05405
       232570       1.05405
       232575       1.05404
       232580       1.05404
       232585       1.05403
       232590       1.05403
       232595       1.05402
       232600       1.05402
       232605       1.05401
       232610       1.05401
       232615         1.054
       232620         1.054
       232625       1.05399
       232630       1.05399
       232635       1.05398
       232640       1.05398
       232645       1.05397
       232650       1.05396
       232655       1.05396
       232660       1.05395
       232665       1.05395
       232670       1.05394
       232675       1.05394
       232680       1.05393
       232685       1.05393
       232690       1.05392
       232695       1.05392
       232700       1.05391
       232705       1.05391
       232710        1.0539
       232715        1.0539
       232720       1.05389
       232725       1.05389
       232730       1.05388
       232735       1.05388
       232740       1.05387
       232745       1.05387
       232750       1.05386
       232755       1.05386
       232760       1.05385
       232765       1.05385
       232770       1.05384
       232775       1.05384
       232780       1.05383
       232785       1.05383
       232790       1.05382
       232795       1.05382
       232800       1.05381
       232805       1.05381
       232810        1.0538
       232815        1.0538
       232820       1.05379
       232825       1.05379
       232830       1.05378
       232835       1.05378
       232840       1.05377
       232845       1.05377
       232850       1.05376
       232855       1.05376
       232860       1.05375
       232865       1.05375
       232870       1.05374
       232875       1.05374
       232880       1.05373
       232885       1.05373
       232890       1.05372
       232895       1.05372
       232900       1.05371
       232905       1.05371
       232910        1.0537
       232915        1.0537
       232920       1.05369
       232925       1.05369
       232930       1.05368
       232935       1.05368
       232940       1.05367
       232945       1.05367
       232950       1.05366
       232955       1.05366
       232960       1.05365
       232965       1.05365
       232970       1.05364
       232975       1.05364
       232980       1.05363
       232985       1.05363
       232990       1.05362
       232995       1.05362
       233000       1.05361
       233005       1.05361
       233010        1.0536
       233015        1.0536
       233020       1.05359
       233025       1.05359
       233030       1.05358
       233035       1.05358
       233040       1.05357
       233045       1.05357
       233050       1.05356
       233055       1.05356
       233060       1.05355
       233065       1.05355
       233070       1.05354
       233075       1.05354
       233080       1.05353
       233085       1.05353
       233090       1.05352
       233095       1.05352
       233100       1.05351
       233105       1.05351
       233110        1.0535
       233115        1.0535
       233120       1.05349
       233125       1.05349
       233130       1.05348
       233135       1.05347
       233140       1.05347
       233145       1.05346
       233150       1.05346
       233155       1.05345
       233160       1.05345
       233165       1.05344
       233170       1.05344
       233175       1.05343
       233180       1.05343
       233185       1.05342
       233190       1.05342
       233195       1.05341
       233200       1.05341
       233205        1.0534
       233210        1.0534
       233215       1.05339
       233220       1.05339
       233225       1.05338
       233230       1.05338
       233235       1.05337
       233240       1.05337
       233245       1.05336
       233250       1.05336
       233255       1.05335
       233260       1.05335
       233265       1.05334
       233270       1.05334
       233275       1.05333
       233280       1.05333
       233285       1.05332
       233290       1.05332
       233295       1.05331
       233300       1.05331
       233305        1.0533
       233310        1.0533
       233315       1.05329
       233320       1.05329
       233325       1.05328
       233330       1.05328
       233335       1.05327
       233340       1.05327
       233345       1.05326
       233350       1.05326
       233355       1.05325
       233360       1.05325
       233365       1.05324
       233370       1.05324
       233375       1.05323
       233380       1.05323
       233385       1.05322
       233390       1.05322
       233395       1.05321
       233400       1.05321
       233405        1.0532
       233410        1.0532
       233415       1.05319
       233420       1.05319
       233425       1.05318
       233430       1.05318
       233435       1.05317
       233440       1.05317
       233445       1.05316
       233450       1.05316
       233455       1.05315
       233460       1.05315
       233465       1.05314
       233470       1.05314
       233475       1.05314
       233480       1.05313
       233485       1.05313
       233490       1.05312
       233495       1.05312
       233500       1.05311
       233505       1.05311
       233510        1.0531
       233515        1.0531
       233520       1.05309
       233525       1.05309
       233530       1.05308
       233535       1.05308
       233540       1.05307
       233545       1.05307
       233550       1.05306
       233555       1.05306
       233560       1.05305
       233565       1.05305
       233570       1.05304
       233575       1.05304
       233580       1.05303
       233585       1.05303
       233590       1.05302
       233595       1.05302
       233600       1.05301
       233605       1.05301
       233610         1.053
       233615         1.053
       233620       1.05299
       233625       1.05299
       233630       1.05298
       233635       1.05298
       233640       1.05297
       233645       1.05297
       233650       1.05296
       233655       1.05296
       233660       1.05295
       233665       1.05295
       233670       1.05294
       233675       1.05294
       233680       1.05293
       233685       1.05293
       233690       1.05292
       233695       1.05292
       233700       1.05291
       233705       1.05291
       233710        1.0529
       233715        1.0529
       233720       1.05289
       233725       1.05289
       233730       1.05288
       233735       1.05288
       233740       1.05287
       233745       1.05287
       233750       1.05286
       233755       1.05286
       233760       1.05285
       233765       1.05285
       233770       1.05284
       233775       1.05284
       233780       1.05283
       233785       1.05283
       233790       1.05282
       233795       1.05282
       233800       1.05281
       233805       1.05281
       233810        1.0528
       233815        1.0528
       233820       1.05279
       233825       1.05279
       233830       1.05278
       233835       1.05278
       233840       1.05277
       233845       1.05277
       233850       1.05276
       233855       1.05276
       233860       1.05275
       233865       1.05275
       233870       1.05274
       233875       1.05274
       233880       1.05273
       233885       1.05273
       233890       1.05272
       233895       1.05272
       233900       1.05271
       233905       1.05271
       233910        1.0527
       233915        1.0527
       233920       1.05269
       233925       1.05269
       233930       1.05268
       233935       1.05268
       233940       1.05267
       233945       1.05267
       233950       1.05266
       233955       1.05266
       233960       1.05266
       233965       1.05265
       233970       1.05265
       233975       1.05264
       233980       1.05264
       233985       1.05263
       233990       1.05263
       233995       1.05262
       234000       1.05262
       234005       1.05261
       234010       1.05261
       234015        1.0526
       234020        1.0526
       234025       1.05259
       234030       1.05259
       234035       1.05258
       234040       1.05258
       234045       1.05257
       234050       1.05257
       234055       1.05256
       234060       1.05256
       234065       1.05255
       234070       1.05255
       234075       1.05254
       234080       1.05254
       234085       1.05253
       234090       1.05253
       234095       1.05252
       234100       1.05252
       234105       1.05251
       234110       1.05251
       234115        1.0525
       234120        1.0525
       234125       1.05249
       234130       1.05249
       234135       1.05248
       234140       1.05248
       234145       1.05247
       234150       1.05247
       234155       1.05246
       234160       1.05246
       234165       1.05245
       234170       1.05245
       234175       1.05244
       234180       1.05244
       234185       1.05243
       234190       1.05243
       234195       1.05242
       234200       1.05242
       234205       1.05241
       234210       1.05241
       234215        1.0524
       234220        1.0524
       234225        1.0524
       234230       1.05239
       234235       1.05239
       234240       1.05238
       234245       1.05238
       234250       1.05237
       234255       1.05237
       234260       1.05236
       234265       1.05236
       234270       1.05235
       234275       1.05235
       234280       1.05234
       234285       1.05234
       234290       1.05233
       234295       1.05233
       234300       1.05232
       234305       1.05232
       234310       1.05231
       234315       1.05231
       234320        1.0523
       234325        1.0523
       234330       1.05229
       234335       1.05229
       234340       1.05228
       234345       1.05228
       234350       1.05227
       234355       1.05227
       234360       1.05226
       234365       1.05226
       234370       1.05225
       234375       1.05225
       234380       1.05224
       234385       1.05224
       234390       1.05223
       234395       1.05223
       234400       1.05222
       234405       1.05222
       234410       1.05221
       234415       1.05221
       234420       1.05221
       234425        1.0522
       234430        1.0522
       234435       1.05219
       234440       1.05219
       234445       1.05218
       234450       1.05218
       234455       1.05217
       234460       1.05217
       234465       1.05216
       234470       1.05216
       234475       1.05215
       234480       1.05215
       234485       1.05214
       234490       1.05214
       234495       1.05213
       234500       1.05213
       234505       1.05212
       234510       1.05212
       234515       1.05211
       234520       1.05211
       234525        1.0521
       234530        1.0521
       234535       1.05209
       234540       1.05209
       234545       1.05208
       234550       1.05208
       234555       1.05207
       234560       1.05207
       234565       1.05206
       234570       1.05206
       234575       1.05205
       234580       1.05205
       234585       1.05204
       234590       1.05204
       234595       1.05204
       234600       1.05203
       234605       1.05203
       234610       1.05202
       234615       1.05202
       234620       1.05201
       234625       1.05201
       234630         1.052
       234635         1.052
       234640       1.05199
       234645       1.05199
       234650       1.05198
       234655       1.05198
       234660       1.05197
       234665       1.05197
       234670       1.05196
       234675       1.05196
       234680       1.05195
       234685       1.05195
       234690       1.05194
       234695       1.05194
       234700       1.05193
       234705       1.05193
       234710       1.05192
       234715       1.05192
       234720       1.05191
       234725       1.05191
       234730        1.0519
       234735        1.0519
       234740        1.0519
       234745       1.05189
       234750       1.05189
       234755       1.05188
       234760       1.05188
       234765       1.05187
       234770       1.05187
       234775       1.05186
       234780       1.05186
       234785       1.05185
       234790       1.05185
       234795       1.05184
       234800       1.05184
       234805       1.05183
       234810       1.05183
       234815       1.05182
       234820       1.05182
       234825       1.05181
       234830       1.05181
       234835        1.0518
       234840        1.0518
       234845       1.05179
       234850       1.05179
       234855       1.05178
       234860       1.05178
       234865       1.05177
       234870       1.05177
       234875       1.05176
       234880       1.05176
       234885       1.05176
       234890       1.05175
       234895       1.05175
       234900       1.05174
       234905       1.05174
       234910       1.05173
       234915       1.05173
       234920       1.05172
       234925       1.05172
       234930       1.05171
       234935       1.05171
       234940        1.0517
       234945        1.0517
       234950       1.05169
       234955       1.05169
       234960       1.05168
       234965       1.05168
       234970       1.05167
       234975       1.05167
       234980       1.05166
       234985       1.05166
       234990       1.05165
       234995       1.05165
       235000       1.05164
       235005       1.05164
       235010       1.05164
       235015       1.05163
       235020       1.05163
       235025       1.05162
       235030       1.05162
       235035       1.05161
       235040       1.05161
       235045        1.0516
       235050        1.0516
       235055       1.05159
       235060       1.05159
       235065       1.05158
       235070       1.05158
       235075       1.05157
       235080       1.05157
       235085       1.05156
       235090       1.05156
       235095       1.05155
       235100       1.05155
       235105       1.05154
       235110       1.05154
       235115       1.05153
       235120       1.05153
       235125       1.05153
       235130       1.05152
       235135       1.05152
       235140       1.05151
       235145       1.05151
       235150        1.0515
       235155        1.0515
       235160       1.05149
       235165       1.05149
       235170       1.05148
       235175       1.05148
       235180       1.05147
       235185       1.05147
       235190       1.05146
       235195       1.05146
       235200       1.05145
       235205       1.05145
       235210       1.05144
       235215       1.05144
       235220       1.05143
       235225       1.05143
       235230       1.05143
       235235       1.05142
       235240       1.05142
       235245       1.05141
       235250       1.05141
       235255        1.0514
       235260        1.0514
       235265       1.05139
       235270       1.05139
       235275       1.05138
       235280       1.05138
       235285       1.05137
       235290       1.05137
       235295       1.05136
       235300       1.05136
       235305       1.05135
       235310       1.05135
       235315       1.05134
       235320       1.05134
       235325       1.05133
       235330       1.05133
       235335       1.05133
       235340       1.05132