# Probe 0 (0.05 0.05 0.005)
#       Probe             0
#        Time
       230005      0.072636
       230010     0.0726292
       230015     0.0726225
       230020     0.0726157
       230025      0.072609
       230030     0.0726022
       230035     0.0725954
       230040     0.0725887
       230045     0.0725819
       230050     0.0725752
       230055     0.0725684
       230060     0.0725617
       230065     0.0725549
       230070     0.0725482
       230075     0.0725414
       230080     0.0725346
       230085     0.0725279
       230090     0.0725211
       230095     0.0725144
       230100     0.0725077
       230105     0.0725009
       230110     0.0724942
       230115     0.0724874
       230120     0.0724807
       230125     0.0724739
       230130     0.0724672
       230135     0.0724604
       230140     0.0724537
       230145      0.072447
       230150     0.0724402
       230155     0.0724335
       230160     0.0724267
       230165       0.07242
       230170     0.0724133
       230175     0.0724065
       230180     0.0723998
       230185     0.0723931
       230190     0.0723863
       230195     0.0723796
       230200     0.0723729
       230205     0.0723661
       230210     0.0723594
       230215     0.0723527
       230220     0.0723459
       230225     0.0723392
       230230     0.0723325
       230235     0.0723258
       230240      0.072319
       230245     0.0723123
       230250     0.0723056
       230255     0.0722989
       230260     0.0722921
       230265     0.0722854
       230270     0.0722787
       230275      0.072272
       230280     0.0722653
       230285     0.0722585
       230290     0.0722518
       230295     0.0722451
       230300     0.0722384
       230305     0.0722317
       230310      0.072225
       230315     0.0722182
       230320     0.0722115
       230325     0.0722048
       230330     0.0721981
       230335     0.0721914
       230340     0.0721847
       230345      0.072178
       230350     0.0721713
       230355     0.0721646
       230360     0.0721579
       230365     0.0721512
       230370     0.0721445
       230375     0.0721378
       230380      0.072131
       230385     0.0721243
       230390     0.0721176
       230395     0.0721109
       230400     0.0721042
       230405     0.0720975
       230410     0.0720908
       230415     0.0720842
       230420     0.0720775
       230425     0.0720708
       230430     0.0720641
       230435     0.0720574
       230440     0.0720507
       230445      0.072044
       230450     0.0720373
       230455     0.0720306
       230460     0.0720239
       230465     0.0720172
       230470     0.0720105
       230475     0.0720039
       230480     0.0719972
       230485     0.0719905
       230490     0.0719838
       230495     0.0719771
       230500     0.0719704
       230505     0.0719637
       230510     0.0719571
       230515     0.0719504
       230520     0.0719437
       230525      0.071937
       230530     0.0719303
       230535     0.0719237
       230540      0.071917
       230545     0.0719103
       230550     0.0719036
       230555      0.071897
       230560     0.0718903
       230565     0.0718836
       230570     0.0718769
       230575     0.0718703
       230580     0.0718636
       230585     0.0718569
       230590     0.0718503
       230595     0.0718436
       230600     0.0718369
       230605     0.0718303
       230610     0.0718236
       230615     0.0718169
       230620     0.0718103
       230625     0.0718036
       230630      0.071797
       230635     0.0717903
       230640     0.0717836
       230645      0.071777
       230650     0.0717703
       230655     0.0717637
       230660      0.071757
       230665     0.0717503
       230670     0.0717437
       230675      0.071737
       230680     0.0717304
       230685     0.0717237
       230690     0.0717171
       230695     0.0717104
       230700     0.0717038
       230705     0.0716971
       230710     0.0716905
       230715     0.0716838
       230720     0.0716772
       230725     0.0716705
       230730     0.0716639
       230735     0.0716572
       230740     0.0716506
       230745     0.0716439
       230750     0.0716373
       230755     0.0716307
       230760      0.071624
       230765     0.0716174
       230770     0.0716107
       230775     0.0716041
       230780     0.0715975
       230785     0.0715908
       230790     0.0715842
       230795     0.0715776
       230800     0.0715709
       230805     0.0715643
       230810     0.0715577
       230815      0.071551
       230820     0.0715444
       230825     0.0715378
       230830     0.0715311
       230835     0.0715245
       230840     0.0715179
       230845     0.0715112
       230850     0.0715046
       230855      0.071498
       230860     0.0714914
       230865     0.0714847
       230870     0.0714781
       230875     0.0714715
       230880     0.0714649
       230885     0.0714582
       230890     0.0714516
       230895      0.071445
       230900     0.0714384
       230905     0.0714318
       230910     0.0714252
       230915     0.0714185
       230920     0.0714119
       230925     0.0714053
       230930     0.0713987
       230935     0.0713921
       230940     0.0713855
       230945     0.0713789
       230950     0.0713722
       230955     0.0713656
       230960      0.071359
       230965     0.0713524
       230970     0.0713458
       230975     0.0713392
       230980     0.0713326
       230985      0.071326
       230990     0.0713194
       230995     0.0713128
       231000     0.0713062
       231005     0.0712996
       231010      0.071293
       231015     0.0712864
       231020     0.0712798
       231025     0.0712732
       231030     0.0712666
       231035       0.07126
       231040     0.0712534
       231045     0.0712468
       231050     0.0712402
       231055     0.0712336
       231060      0.071227
       231065     0.0712204
       231070     0.0712138
       231075     0.0712072
       231080     0.0712006
       231085     0.0711941
       231090     0.0711875
       231095     0.0711809
       231100     0.0711743
       231105     0.0711677
       231110     0.0711611
       231115     0.0711545
       231120      0.071148
       231125     0.0711414
       231130     0.0711348
       231135     0.0711282
       231140     0.0711216
       231145     0.0711151
       231150     0.0711085
       231155     0.0711019
       231160     0.0710953
       231165     0.0710887
       231170     0.0710822
       231175     0.0710756
       231180      0.071069
       231185     0.0710624
       231190     0.0710559
       231195     0.0710493
       231200     0.0710427
       231205     0.0710362
       231210     0.0710296
       231215      0.071023
       231220     0.0710165
       231225     0.0710099
       231230     0.0710033
       231235     0.0709968
       231240     0.0709902
       231245     0.0709836
       231250     0.0709771
       231255     0.0709705
       231260     0.0709639
       231265     0.0709574
       231270     0.0709508
       231275     0.0709443
       231280     0.0709377
       231285     0.0709311
       231290     0.0709246
       231295      0.070918
       231300     0.0709115
       231305     0.0709049
       231310     0.0708984
       231315     0.0708918
       231320     0.0708853
       231325     0.0708787
       231330     0.0708722
       231335     0.0708656
       231340     0.0708591
       231345     0.0708525
       231350      0.070846
       231355     0.0708394
       231360     0.0708329
       231365     0.0708263
       231370     0.0708198
       231375     0.0708132
       231380     0.0708067
       231385     0.0708002
       231390     0.0707936
       231395     0.0707871
       231400     0.0707805
       231405      0.070774
       231410     0.0707675
       231415     0.0707609
       231420     0.0707544
       231425     0.0707479
       231430     0.0707413
       231435     0.0707348
       231440     0.0707283
       231445     0.0707217
       231450     0.0707152
       231455     0.0707087
       231460     0.0707021
       231465     0.0706956
       231470     0.0706891
       231475     0.0706825
       231480      0.070676
       231485     0.0706695
       231490      0.070663
       231495     0.0706564
       231500     0.0706499
       231505     0.0706434
       231510     0.0706369
       231515     0.0706304
       231520     0.0706238
       231525     0.0706173
       231530     0.0706108
       231535     0.0706043
       231540     0.0705978
       231545     0.0705912
       231550     0.0705847
       231555     0.0705782
       231560     0.0705717
       231565     0.0705652
       231570     0.0705587
       231575     0.0705522
       231580     0.0705457
       231585     0.0705391
       231590     0.0705326
       231595     0.0705261
       231600     0.0705196
       231605     0.0705131
       231610     0.0705066
       231615     0.0705001
       231620     0.0704936
       231625     0.0704871
       231630     0.0704806
       231635     0.0704741
       231640     0.0704676
       231645     0.0704611
       231650     0.0704546
       231655     0.0704481
       231660     0.0704416
       231665     0.0704351
       231670     0.0704286
       231675     0.0704221
       231680     0.0704156
       231685     0.0704091
       231690     0.0704026
       231695     0.0703961
       231700     0.0703896
       231705     0.0703831
       231710     0.0703766
       231715     0.0703702
       231720     0.0703637
       231725     0.0703572
       231730     0.0703507
       231735     0.0703442
       231740     0.0703377
       231745     0.0703312
       231750     0.0703247
       231755     0.0703183
       231760     0.0703118
       231765     0.0703053
       231770     0.0702988
       231775     0.0702923
       231780     0.0702859
       231785     0.0702794
       231790     0.0702729
       231795     0.0702664
       231800     0.0702599
       231805     0.0702535
       231810      0.070247
       231815     0.0702405
       231820     0.0702341
       231825     0.0702276
       231830     0.0702211
       231835     0.0702146
       231840     0.0702082
       231845     0.0702017
       231850     0.0701952
       231855     0.0701888
       231860     0.0701823
       231865     0.0701758
       231870     0.0701694
       231875     0.0701629
       231880     0.0701564
       231885       0.07015
       231890     0.0701435
       231895      0.070137
       231900     0.0701306
       231905     0.0701241
       231910     0.0701177
       231915     0.0701112
       231920     0.0701047
       231925     0.0700983
       231930     0.0700918
       231935     0.0700854
       231940     0.0700789
       231945     0.0700725
       231950      0.070066
       231955     0.0700596
       231960     0.0700531
       231965     0.0700467
       231970     0.0700402
       231975     0.0700338
       231980     0.0700273
       231985     0.0700209
       231990     0.0700144
       231995      0.070008
       232000     0.0700015
       232005     0.0699951
       232010     0.0699886
       232015     0.0699822
       232020     0.0699758
       232025     0.0699693
       232030     0.0699629
       232035     0.0699564
       232040       0.06995
       232045     0.0699436
       232050     0.0699371
       232055     0.0699307
       232060     0.0699242
       232065     0.0699178
       232070     0.0699114
       232075     0.0699049
       232080     0.0698985
       232085     0.0698921
       232090     0.0698856
       232095     0.0698792
       232100     0.0698728
       232105     0.0698664
       232110     0.0698599
       232115     0.0698535
       232120     0.0698471
       232125     0.0698406
       232130     0.0698342
       232135     0.0698278
       232140     0.0698214
       232145     0.0698149
       232150     0.0698085
       232155     0.0698021
       232160     0.0697957
       232165     0.0697893
       232170     0.0697828
       232175     0.0697764
       232180       0.06977
       232185     0.0697636
       232190     0.0697572
       232195     0.0697508
       232200     0.0697443
       232205     0.0697379
       232210     0.0697315
       232215     0.0697251
       232220     0.0697187
       232225     0.0697123
       232230     0.0697059
       232235     0.0696995
       232240     0.0696931
       232245     0.0696867
       232250     0.0696802
       232255     0.0696738
       232260     0.0696674
       232265      0.069661
       232270     0.0696546
       232275     0.0696482
       232280     0.0696418
       232285     0.0696354
       232290      0.069629
       232295     0.0696226
       232300     0.0696162
       232305     0.0696098
       232310     0.0696034
       232315      0.069597
       232320     0.0695906
       232325     0.0695842
       232330     0.0695778
       232335     0.0695714
       232340     0.0695651
       232345     0.0695587
       232350     0.0695523
       232355     0.0695459
       232360     0.0695395
       232365     0.0695331
       232370     0.0695267
       232375     0.0695203
       232380     0.0695139
       232385     0.0695076
       232390     0.0695012
       232395     0.0694948
       232400     0.0694884
       232405      0.069482
       232410     0.0694756
       232415     0.0694693
       232420     0.0694629
       232425     0.0694565
       232430     0.0694501
       232435     0.0694437
       232440     0.0694374
       232445      0.069431
       232450     0.0694246
       232455     0.0694182
       232460     0.0694119
       232465     0.0694055
       232470     0.0693991
       232475     0.0693927
       232480     0.0693864
       232485       0.06938
       232490     0.0693736
       232495     0.0693673
       232500     0.0693609
       232505     0.0693545
       232510     0.0693482
       232515     0.0693418
       232520     0.0693354
       232525     0.0693291
       232530     0.0693227
       232535     0.0693163
       232540       0.06931
       232545     0.0693036
       232550     0.0692972
       232555     0.0692909
       232560     0.0692845
       232565     0.0692782
       232570     0.0692718
       232575     0.0692655
       232580     0.0692591
       232585     0.0692527
       232590     0.0692464
       232595       0.06924
       232600     0.0692337
       232605     0.0692273
       232610      0.069221
       232615     0.0692146
       232620     0.0692083
       232625     0.0692019
       232630     0.0691956
       232635     0.0691892
       232640     0.0691829
       232645     0.0691765
       232650     0.0691702
       232655     0.0691638
       232660     0.0691575
       232665     0.0691512
       232670     0.0691448
       232675     0.0691385
       232680     0.0691321
       232685     0.0691258
       232690     0.0691195
       232695     0.0691131
       232700     0.0691068
       232705     0.0691004
       232710     0.0690941
       232715     0.0690878
       232720     0.0690814
       232725     0.0690751
       232730     0.0690688
       232735     0.0690624
       232740     0.0690561
       232745     0.0690498
       232750     0.0690434
       232755     0.0690371
       232760     0.0690308
       232765     0.0690244
       232770     0.0690181
       232775     0.0690118
       232780     0.0690055
       232785     0.0689991
       232790     0.0689928
       232795     0.0689865
       232800     0.0689802
       232805     0.0689739
       232810     0.0689675
       232815     0.0689612
       232820     0.0689549
       232825     0.0689486
       232830     0.0689423
       232835     0.0689359
       232840     0.0689296
       232845     0.0689233
       232850      0.068917
       232855     0.0689107
       232860     0.0689044
       232865      0.068898
       232870     0.0688917
       232875     0.0688854
       232880     0.0688791
       232885     0.0688728
       232890     0.0688665
       232895     0.0688602
       232900     0.0688539
       232905     0.0688476
       232910     0.0688413
       232915      0.068835
       232920     0.0688287
       232925     0.0688224
       232930      0.068816
       232935     0.0688097
       232940     0.0688034
       232945     0.0687971
       232950     0.0687908
       232955     0.0687845
       232960     0.0687782
       232965     0.0687719
       232970     0.0687656
       232975     0.0687594
       232980     0.0687531
       232985     0.0687468
       232990     0.0687405
       232995     0.0687342
       233000     0.0687279
       233005     0.0687216
       233010     0.0687153
       233015      0.068709
       233020     0.0687027
       233025     0.0686964
       233030     0.0686901
       233035     0.0686839
       233040     0.0686776
       233045     0.0686713
       233050      0.068665
       233055     0.0686587
       233060     0.0686524
       233065     0.0686461
       233070     0.0686399
       233075     0.0686336
       233080     0.0686273
       233085      0.068621
       233090     0.0686147
       233095     0.0686085
       233100     0.0686022
       233105     0.0685959
       233110     0.0685896
       233115     0.0685834
       233120     0.0685771
       233125     0.0685708
       233130     0.0685645
       233135     0.0685583
       233140      0.068552
       233145     0.0685457
       233150     0.0685395
       233155     0.0685332
       233160     0.0685269
       233165     0.0685207
       233170     0.0685144
       233175     0.0685081
       233180     0.0685019
       233185     0.0684956
       233190     0.0684893
       233195     0.0684831
       233200     0.0684768
       233205     0.0684705
       233210     0.0684643
       233215      0.068458
       233220     0.0684518
       233225     0.0684455
       233230     0.0684392
       233235      0.068433
       233240     0.0684267
       233245     0.0684205
       233250     0.0684142
       233255      0.068408
       233260     0.0684017
       233265     0.0683955
       233270     0.0683892
       233275     0.0683829
       233280     0.0683767
       233285     0.0683704
       233290     0.0683642
       233295      0.068358
       233300     0.0683517
       233305     0.0683455
       233310     0.0683392
       233315      0.068333
       233320     0.0683267
       233325     0.0683205
       233330     0.0683142
       233335      0.068308
       233340     0.0683017
       233345     0.0682955
       233350     0.0682893
       233355      0.068283
       233360     0.0682768
       233365     0.0682706
       233370     0.0682643
       233375     0.0682581
       233380     0.0682518
       233385     0.0682456
       233390     0.0682394
       233395     0.0682331
       233400     0.0682269
       233405     0.0682207
       233410     0.0682144
       233415     0.0682082
       233420      0.068202
       233425     0.0681958
       233430     0.0681895
       233435     0.0681833
       233440     0.0681771
       233445     0.0681708
       233450     0.0681646
       233455     0.0681584
       233460     0.0681522
       233465      0.068146
       233470     0.0681397
       233475     0.0681335
       233480     0.0681273
       233485     0.0681211
       233490     0.0681148
       233495     0.0681086
       233500     0.0681024
       233505     0.0680962
       233510       0.06809
       233515     0.0680838
       233520     0.0680775
       233525     0.0680713
       233530     0.0680651
       233535     0.0680589
       233540     0.0680527
       233545     0.0680465
       233550     0.0680403
       233555     0.0680341
       233560     0.0680279
       233565     0.0680216
       233570     0.0680154
       233575     0.0680092
       233580      0.068003
       233585     0.0679968
       233590     0.0679906
       233595     0.0679844
       233600     0.0679782
       233605      0.067972
       233610     0.0679658
       233615     0.0679596
       233620     0.0679534
       233625     0.0679472
       233630      0.067941
       233635     0.0679348
       233640     0.0679286
       233645     0.0679224
       233650     0.0679162
       233655       0.06791
       233660     0.0679038
       233665     0.0678976
       233670     0.0678914
       233675     0.0678853
       233680     0.0678791
       233685     0.0678729
       233690     0.0678667
       233695     0.0678605
       233700     0.0678543
       233705     0.0678481
       233710     0.0678419
       233715     0.0678357
       233720     0.0678296
       233725     0.0678234
       233730     0.0678172
       233735      0.067811
       233740     0.0678048
       233745     0.0677986
       233750     0.0677925
       233755     0.0677863
       233760     0.0677801
       233765     0.0677739
       233770     0.0677677
       233775     0.0677616
       233780     0.0677554
       233785     0.0677492
       233790      0.067743
       233795     0.0677369
       233800     0.0677307
       233805     0.0677245
       233810     0.0677184
       233815     0.0677122
       233820      0.067706
       233825     0.0676998
       233830     0.0676937
       233835     0.0676875
       233840     0.0676813
       233845     0.0676752
       233850      0.067669
       233855     0.0676628
       233860     0.0676567
       233865     0.0676505
       233870     0.0676443
       233875     0.0676382
       233880      0.067632
       233885     0.0676259
       233890     0.0676197
       233895     0.0676135
       233900     0.0676074
       233905     0.0676012
       233910     0.0675951
       233915     0.0675889
       233920     0.0675828
       233925     0.0675766
       233930     0.0675704
       233935     0.0675643
       233940     0.0675581
       233945      0.067552
       233950     0.0675458
       233955     0.0675397
       233960     0.0675335
       233965     0.0675274
       233970     0.0675212
       233975     0.0675151
       233980     0.0675089
       233985     0.0675028
       233990     0.0674966
       233995     0.0674905
       234000     0.0674844
       234005     0.0674782
       234010     0.0674721
       234015     0.0674659
       234020     0.0674598
       234025     0.0674536
       234030     0.0674475
       234035     0.0674414
       234040     0.0674352
       234045     0.0674291
       234050      0.067423
       234055     0.0674168
       234060     0.0674107
       234065     0.0674046
       234070     0.0673984
       234075     0.0673923
       234080     0.0673862
       234085       0.06738
       234090     0.0673739
       234095     0.0673678
       234100     0.0673616
       234105     0.0673555
       234110     0.0673494
       234115     0.0673432
       234120     0.0673371
       234125      0.067331
       234130     0.0673249
       234135     0.0673187
       234140     0.0673126
       234145     0.0673065
       234150     0.0673004
       234155     0.0672943
       234160     0.0672881
       234165      0.067282
       234170     0.0672759
       234175     0.0672698
       234180     0.0672637
       234185     0.0672575
       234190     0.0672514
       234195     0.0672453
       234200     0.0672392
       234205     0.0672331
       234210      0.067227
       234215     0.0672209
       234220     0.0672147
       234225     0.0672086
       234230     0.0672025
       234235     0.0671964
       234240     0.0671903
       234245     0.0671842
       234250     0.0671781
       234255      0.067172
       234260     0.0671659
       234265     0.0671598
       234270     0.0671537
       234275     0.0671476
       234280     0.0671415
       234285     0.0671353
       234290     0.0671292
       234295     0.0671231
       234300      0.067117
       234305     0.0671109
       234310     0.0671048
       234315     0.0670987
       234320     0.0670927
       234325     0.0670866
       234330     0.0670805
       234335     0.0670744
       234340     0.0670683
       234345     0.0670622
       234350     0.0670561
       234355       0.06705
       234360     0.0670439
       234365     0.0670378
       234370     0.0670317
       234375     0.0670256
       234380     0.0670195
       234385     0.0670134
       234390     0.0670074
       234395     0.0670013
       234400     0.0669952
       234405     0.0669891
       234410      0.066983
       234415     0.0669769
       234420     0.0669709
       234425     0.0669648
       234430     0.0669587
       234435     0.0669526
       234440     0.0669465
       234445     0.0669404
       234450     0.0669344
       234455     0.0669283
       234460     0.0669222
       234465     0.0669161
       234470     0.0669101
       234475      0.066904
       234480     0.0668979
       234485     0.0668918
       234490     0.0668858
       234495     0.0668797
       234500     0.0668736
       234505     0.0668675
       234510     0.0668615
       234515     0.0668554
       234520     0.0668493
       234525     0.0668433
       234530     0.0668372
       234535     0.0668311
       234540     0.0668251
       234545      0.066819
       234550     0.0668129
       234555     0.0668069
       234560     0.0668008
       234565     0.0667948
       234570     0.0667887
       234575     0.0667826
       234580     0.0667766
       234585     0.0667705
       234590     0.0667645
       234595     0.0667584
       234600     0.0667523
       234605     0.0667463
       234610     0.0667402
       234615     0.0667342
       234620     0.0667281
       234625     0.0667221
       234630      0.066716
       234635       0.06671
       234640     0.0667039
       234645     0.0666979
       234650     0.0666918
       234655     0.0666858
       234660     0.0666797
       234665     0.0666737
       234670     0.0666676
       234675     0.0666616
       234680     0.0666555
       234685     0.0666495
       234690     0.0666434
       234695     0.0666374
       234700     0.0666313
       234705     0.0666253
       234710     0.0666193
       234715     0.0666132
       234720     0.0666072
       234725     0.0666011
       234730     0.0665951
       234735     0.0665891
       234740      0.066583
       234745      0.066577
       234750      0.066571
       234755     0.0665649
       234760     0.0665589
       234765     0.0665529
       234770     0.0665468
       234775     0.0665408
       234780     0.0665348
       234785     0.0665287
       234790     0.0665227
       234795     0.0665167
       234800     0.0665106
       234805     0.0665046
       234810     0.0664986
       234815     0.0664926
       234820     0.0664865
       234825     0.0664805
       234830     0.0664745
       234835     0.0664685
       234840     0.0664624
       234845     0.0664564
       234850     0.0664504
       234855     0.0664444
       234860     0.0664384
       234865     0.0664323
       234870     0.0664263
       234875     0.0664203
       234880     0.0664143
       234885     0.0664083
       234890     0.0664023
       234895     0.0663962
       234900     0.0663902
       234905     0.0663842
       234910     0.0663782
       234915     0.0663722
       234920     0.0663662
       234925     0.0663602
       234930     0.0663542
       234935     0.0663481
       234940     0.0663421
       234945     0.0663361
       234950     0.0663301
       234955     0.0663241
       234960     0.0663181
       234965     0.0663121
       234970     0.0663061
       234975     0.0663001
       234980     0.0662941
       234985     0.0662881
       234990     0.0662821
       234995     0.0662761
       235000     0.0662701
       235005     0.0662641
       235010     0.0662581
       235015     0.0662521
       235020     0.0662461
       235025     0.0662401
       235030     0.0662341
       235035     0.0662281
       235040     0.0662221
       235045     0.0662161
       235050     0.0662101
       235055     0.0662041
       235060     0.0661981
       235065     0.0661922
       235070     0.0661862
       235075     0.0661802
       235080     0.0661742
       235085     0.0661682
       235090     0.0661622
       235095     0.0661562
       235100     0.0661502
       235105     0.0661443
       235110     0.0661383
       235115     0.0661323
       235120     0.0661263
       235125     0.0661203
       235130     0.0661143
       235135     0.0661084
       235140     0.0661024
       235145     0.0660964
       235150     0.0660904
       235155     0.0660844
       235160     0.0660785
       235165     0.0660725
       235170     0.0660665
       235175     0.0660605
       235180     0.0660546
       235185     0.0660486
       235190     0.0660426
       235195     0.0660366
       235200     0.0660307
       235205     0.0660247
       235210     0.0660187
       235215     0.0660128
       235220     0.0660068
       235225     0.0660008
       235230     0.0659949
       235235     0.0659889
       235240     0.0659829
       235245      0.065977
       235250      0.065971
       235255      0.065965
       235260     0.0659591
       235265     0.0659531
       235270     0.0659471
       235275     0.0659412
       235280     0.0659352
       235285     0.0659293
       235290     0.0659233
       235295     0.0659173
       235300     0.0659114
       235305     0.0659054
       235310     0.0658995
       235315     0.0658935
       235320     0.0658876
       235325     0.0658816
       235330     0.0658757
       235335     0.0658697
       235340     0.0658638