# Probe 0 (0.05 0.05 0.005)
#       Probe             0
#        Time
       230005       1.18205
       230010       1.18203
       230015       1.18201
       230020         1.182
       230025       1.18198
       230030       1.18196
       230035       1.18194
       230040       1.18192
       230045        1.1819
       230050       1.18188
       230055       1.18187
       230060       1.18185
       230065       1.18183
       230070       1.18181
       230075       1.18179
       230080       1.18177
       230085       1.18176
       230090       1.18174
       230095       1.18172
       230100        1.1817
       230105       1.18168
       230110       1.18166
       230115       1.18165
       230120       1.18163
       230125       1.18161
       230130       1.18159
       230135       1.18157
       230140       1.18155
       230145       1.18154
       230150       1.18152
       230155        1.1815
       230160       1.18148
       230165       1.18146
       230170       1.18144
       230175       1.18143
       230180       1.18141
       230185       1.18139
       230190       1.18137
       230195       1.18135
       230200       1.18133
       230205       1.18132
       230210        1.1813
       230215       1.18128
       230220       1.18126
       230225       1.18124
       230230       1.18122
       230235       1.18121
       230240       1.18119
       230245       1.18117
       230250       1.18115
       230255       1.18113
       230260       1.18111
       230265        1.1811
       230270       1.18108
       230275       1.18106
       230280       1.18104
       230285       1.18102
       230290       1.18101
       230295       1.18099
       230300       1.18097
       230305       1.18095
       230310       1.18093
       230315       1.18091
       230320        1.1809
       230325       1.18088
       230330       1.18086
       230335       1.18084
       230340       1.18082
       230345        1.1808
       230350       1.18079
       230355       1.18077
       230360       1.18075
       230365       1.18073
       230370       1.18071
       230375        1.1807
       230380       1.18068
       230385       1.18066
       230390       1.18064
       230395       1.18062
       230400        1.1806
       230405       1.18059
       230410       1.18057
       230415       1.18055
       230420       1.18053
       230425       1.18051
       230430       1.18049
       230435       1.18048
       230440       1.18046
       230445       1.18044
       230450       1.18042
       230455        1.1804
       230460       1.18039
       230465       1.18037
       230470       1.18035
       230475       1.18033
       230480       1.18031
       230485       1.18029
       230490       1.18028
       230495       1.18026
       230500       1.18024
       230505       1.18022
       230510        1.1802
       230515       1.18019
       230520       1.18017
       230525       1.18015
       230530       1.18013
       230535       1.18011
       230540        1.1801
       230545       1.18008
       230550       1.18006
       230555       1.18004
       230560       1.18002
       230565          1.18
       230570       1.17999
       230575       1.17997
       230580       1.17995
       230585       1.17993
       230590       1.17991
       230595        1.1799
       230600       1.17988
       230605       1.17986
       230610       1.17984
       230615       1.17982
       230620       1.17981
       230625       1.17979
       230630       1.17977
       230635       1.17975
       230640       1.17973
       230645       1.17971
       230650        1.1797
       230655       1.17968
       230660       1.17966
       230665       1.17964
       230670       1.17962
       230675       1.17961
       230680       1.17959
       230685       1.17957
       230690       1.17955
       230695       1.17953
       230700       1.17952
       230705        1.1795
       230710       1.17948
       230715       1.17946
       230720       1.17944
       230725       1.17943
       230730       1.17941
       230735       1.17939
       230740       1.17937
       230745       1.17935
       230750       1.17934
       230755       1.17932
       230760        1.1793
       230765       1.17928
       230770       1.17926
       230775       1.17925
       230780       1.17923
       230785       1.17921
       230790       1.17919
       230795       1.17917
       230800       1.17916
       230805       1.17914
       230810       1.17912
       230815        1.1791
       230820       1.17908
       230825       1.17907
       230830       1.17905
       230835       1.17903
       230840       1.17901
       230845       1.17899
       230850       1.17898
       230855       1.17896
       230860       1.17894
       230865       1.17892
       230870        1.1789
       230875       1.17889
       230880       1.17887
       230885       1.17885
       230890       1.17883
       230895       1.17881
       230900        1.1788
       230905       1.17878
       230910       1.17876
       230915       1.17874
       230920       1.17872
       230925       1.17871
       230930       1.17869
       230935       1.17867
       230940       1.17865
       230945       1.17863
       230950       1.17862
       230955        1.1786
       230960       1.17858
       230965       1.17856
       230970       1.17854
       230975       1.17853
       230980       1.17851
       230985       1.17849
       230990       1.17847
       230995       1.17845
       231000       1.17844
       231005       1.17842
       231010        1.1784
       231015       1.17838
       231020       1.17836
       231025       1.17835
       231030       1.17833
       231035       1.17831
       231040       1.17829
       231045       1.17828
       231050       1.17826
       231055       1.17824
       231060       1.17822
       231065        1.1782
       231070       1.17819
       231075       1.17817
       231080       1.17815
       231085       1.17813
       231090       1.17811
       231095        1.1781
       231100       1.17808
       231105       1.17806
       231110       1.17804
       231115       1.17803
       231120       1.17801
       231125       1.17799
       231130       1.17797
       231135       1.17795
       231140       1.17794
       231145       1.17792
       231150        1.1779
       231155       1.17788
       231160       1.17786
       231165       1.17785
       231170       1.17783
       231175       1.17781
       231180       1.17779
       231185       1.17778
       231190       1.17776
       231195       1.17774
       231200       1.17772
       231205        1.1777
       231210       1.17769
       231215       1.17767
       231220       1.17765
       231225       1.17763
       231230       1.17761
       231235        1.1776
       231240       1.17758
       231245       1.17756
       231250       1.17754
       231255       1.17753
       231260       1.17751
       231265       1.17749
       231270       1.17747
       231275       1.17745
       231280       1.17744
       231285       1.17742
       231290        1.1774
       231295       1.17738
       231300       1.17737
       231305       1.17735
       231310       1.17733
       231315       1.17731
       231320       1.17729
       231325       1.17728
       231330       1.17726
       231335       1.17724
       231340       1.17722
       231345       1.17721
       231350       1.17719
       231355       1.17717
       231360       1.17715
       231365       1.17714
       231370       1.17712
       231375        1.1771
       231380       1.17708
       231385       1.17706
       231390       1.17705
       231395       1.17703
       231400       1.17701
       231405       1.17699
       231410       1.17698
       231415       1.17696
       231420       1.17694
       231425       1.17692
       231430        1.1769
       231435       1.17689
       231440       1.17687
       231445       1.17685
       231450       1.17683
       231455       1.17682
       231460        1.1768
       231465       1.17678
       231470       1.17676
       231475       1.17675
       231480       1.17673
       231485       1.17671
       231490       1.17669
       231495       1.17667
       231500       1.17666
       231505       1.17664
       231510       1.17662
       231515        1.1766
       231520       1.17659
       231525       1.17657
       231530       1.17655
       231535       1.17653
       231540       1.17652
       231545        1.1765
       231550       1.17648
       231555       1.17646
       231560       1.17645
       231565       1.17643
       231570       1.17641
       231575       1.17639
       231580       1.17637
       231585       1.17636
       231590       1.17634
       231595       1.17632
       231600        1.1763
       231605       1.17629
       231610       1.17627
       231615       1.17625
       231620       1.17623
       231625       1.17622
       231630        1.1762
       231635       1.17618
       231640       1.17616
       231645       1.17615
       231650       1.17613
       231655       1.17611
       231660       1.17609
       231665       1.17608
       231670       1.17606
       231675       1.17604
       231680       1.17602
       231685         1.176
       231690       1.17599
       231695       1.17597
       231700       1.17595
       231705       1.17593
       231710       1.17592
       231715        1.1759
       231720       1.17588
       231725       1.17586
       231730       1.17585
       231735       1.17583
       231740       1.17581
       231745       1.17579
       231750       1.17578
       231755       1.17576
       231760       1.17574
       231765       1.17572
       231770       1.17571
       231775       1.17569
       231780       1.17567
       231785       1.17565
       231790       1.17564
       231795       1.17562
       231800        1.1756
       231805       1.17558
       231810       1.17557
       231815       1.17555
       231820       1.17553
       231825       1.17551
       231830        1.1755
       231835       1.17548
       231840       1.17546
       231845       1.17544
       231850       1.17543
       231855       1.17541
       231860       1.17539
       231865       1.17537
       231870       1.17536
       231875       1.17534
       231880       1.17532
       231885        1.1753
       231890       1.17529
       231895       1.17527
       231900       1.17525
       231905       1.17523
       231910       1.17522
       231915        1.1752
       231920       1.17518
       231925       1.17516
       231930       1.17515
       231935       1.17513
       231940       1.17511
       231945       1.17509
       231950       1.17508
       231955       1.17506
       231960       1.17504
       231965       1.17502
       231970       1.17501
       231975       1.17499
       231980       1.17497
       231985       1.17495
       231990       1.17494
       231995       1.17492
       232000        1.1749
       232005       1.17488
       232010       1.17487
       232015       1.17485
       232020       1.17483
       232025       1.17481
       232030        1.1748
       232035       1.17478
       232040       1.17476
       232045       1.17474
       232050       1.17473
       232055       1.17471
       232060       1.17469
       232065       1.17468
       232070       1.17466
       232075       1.17464
       232080       1.17462
       232085       1.17461
       232090       1.17459
       232095       1.17457
       232100       1.17455
       232105       1.17454
       232110       1.17452
       232115        1.1745
       232120       1.17448
       232125       1.17447
       232130       1.17445
       232135       1.17443
       232140       1.17441
       232145        1.1744
       232150       1.17438
       232155       1.17436
       232160       1.17434
       232165       1.17433
       232170       1.17431
       232175       1.17429
       232180       1.17428
       232185       1.17426
       232190       1.17424
       232195       1.17422
       232200       1.17421
       232205       1.17419
       232210       1.17417
       232215       1.17415
       232220       1.17414
       232225       1.17412
       232230        1.1741
       232235       1.17408
       232240       1.17407
       232245       1.17405
       232250       1.17403
       232255       1.17402
       232260         1.174
       232265       1.17398
       232270       1.17396
       232275       1.17395
       232280       1.17393
       232285       1.17391
       232290       1.17389
       232295       1.17388
       232300       1.17386
       232305       1.17384
       232310       1.17383
       232315       1.17381
       232320       1.17379
       232325       1.17377
       232330       1.17376
       232335       1.17374
       232340       1.17372
       232345        1.1737
       232350       1.17369
       232355       1.17367
       232360       1.17365
       232365       1.17364
       232370       1.17362
       232375        1.1736
       232380       1.17358
       232385       1.17357
       232390       1.17355
       232395       1.17353
       232400       1.17351
       232405        1.1735
       232410       1.17348
       232415       1.17346
       232420       1.17345
       232425       1.17343
       232430       1.17341
       232435       1.17339
       232440       1.17338
       232445       1.17336
       232450       1.17334
       232455       1.17332
       232460       1.17331
       232465       1.17329
       232470       1.17327
       232475       1.17326
       232480       1.17324
       232485       1.17322
       232490        1.1732
       232495       1.17319
       232500       1.17317
       232505       1.17315
       232510       1.17314
       232515       1.17312
       232520        1.1731
       232525       1.17308
       232530       1.17307
       232535       1.17305
       232540       1.17303
       232545       1.17302
       232550         1.173
       232555       1.17298
       232560       1.17296
       232565       1.17295
       232570       1.17293
       232575       1.17291
       232580       1.17289
       232585       1.17288
       232590       1.17286
       232595       1.17284
       232600       1.17283
       232605       1.17281
       232610       1.17279
       232615       1.17277
       232620       1.17276
       232625       1.17274
       232630       1.17272
       232635       1.17271
       232640       1.17269
       232645       1.17267
       232650       1.17265
       232655       1.17264
       232660       1.17262
       232665        1.1726
       232670       1.17259
       232675       1.17257
       232680       1.17255
       232685       1.17253
       232690       1.17252
       232695        1.1725
       232700       1.17248
       232705       1.17247
       232710       1.17245
       232715       1.17243
       232720       1.17242
       232725        1.1724
       232730       1.17238
       232735       1.17236
       232740       1.17235
       232745       1.17233
       232750       1.17231
       232755        1.1723
       232760       1.17228
       232765       1.17226
       232770       1.17224
       232775       1.17223
       232780       1.17221
       232785       1.17219
       232790       1.17218
       232795       1.17216
       232800       1.17214
       232805       1.17212
       232810       1.17211
       232815       1.17209
       232820       1.17207
       232825       1.17206
       232830       1.17204
       232835       1.17202
       232840       1.17201
       232845       1.17199
       232850       1.17197
       232855       1.17195
       232860       1.17194
       232865       1.17192
       232870        1.1719
       232875       1.17189
       232880       1.17187
       232885       1.17185
       232890       1.17184
       232895       1.17182
       232900        1.1718
       232905       1.17178
       232910       1.17177
       232915       1.17175
       232920       1.17173
       232925       1.17172
       232930        1.1717
       232935       1.17168
       232940       1.17166
       232945       1.17165
       232950       1.17163
       232955       1.17161
       232960        1.1716
       232965       1.17158
       232970       1.17156
       232975       1.17155
       232980       1.17153
       232985       1.17151
       232990        1.1715
       232995       1.17148
       233000       1.17146
       233005       1.17144
       233010       1.17143
       233015       1.17141
       233020       1.17139
       233025       1.17138
       233030       1.17136
       233035       1.17134
       233040       1.17133
       233045       1.17131
       233050       1.17129
       233055       1.17127
       233060       1.17126
       233065       1.17124
       233070       1.17122
       233075       1.17121
       233080       1.17119
       233085       1.17117
       233090       1.17116
       233095       1.17114
       233100       1.17112
       233105       1.17111
       233110       1.17109
       233115       1.17107
       233120       1.17105
       233125       1.17104
       233130       1.17102
       233135         1.171
       233140       1.17099
       233145       1.17097
       233150       1.17095
       233155       1.17094
       233160       1.17092
       233165        1.1709
       233170       1.17089
       233175       1.17087
       233180       1.17085
       233185       1.17083
       233190       1.17082
       233195        1.1708
       233200       1.17078
       233205       1.17077
       233210       1.17075
       233215       1.17073
       233220       1.17072
       233225        1.1707
       233230       1.17068
       233235       1.17067
       233240       1.17065
       233245       1.17063
       233250       1.17062
       233255        1.1706
       233260       1.17058
       233265       1.17056
       233270       1.17055
       233275       1.17053
       233280       1.17051
       233285        1.1705
       233290       1.17048
       233295       1.17046
       233300       1.17045
       233305       1.17043
       233310       1.17041
       233315        1.1704
       233320       1.17038
       233325       1.17036
       233330       1.17035
       233335       1.17033
       233340       1.17031
       233345        1.1703
       233350       1.17028
       233355       1.17026
       233360       1.17024
       233365       1.17023
       233370       1.17021
       233375       1.17019
       233380       1.17018
       233385       1.17016
       233390       1.17014
       233395       1.17013
       233400       1.17011
       233405       1.17009
       233410       1.17008
       233415       1.17006
       233420       1.17004
       233425       1.17003
       233430       1.17001
       233435       1.16999
       233440       1.16998
       233445       1.16996
       233450       1.16994
       233455       1.16993
       233460       1.16991
       233465       1.16989
       233470       1.16988
       233475       1.16986
       233480       1.16984
       233485       1.16983
       233490       1.16981
       233495       1.16979
       233500       1.16978
       233505       1.16976
       233510       1.16974
       233515       1.16972
       233520       1.16971
       233525       1.16969
       233530       1.16967
       233535       1.16966
       233540       1.16964
       233545       1.16962
       233550       1.16961
       233555       1.16959
       233560       1.16957
       233565       1.16956
       233570       1.16954
       233575       1.16952
       233580       1.16951
       233585       1.16949
       233590       1.16947
       233595       1.16946
       233600       1.16944
       233605       1.16942
       233610       1.16941
       233615       1.16939
       233620       1.16937
       233625       1.16936
       233630       1.16934
       233635       1.16932
       233640       1.16931
       233645       1.16929
       233650       1.16927
       233655       1.16926
       233660       1.16924
       233665       1.16922
       233670       1.16921
       233675       1.16919
       233680       1.16917
       233685       1.16916
       233690       1.16914
       233695       1.16912
       233700       1.16911
       233705       1.16909
       233710       1.16907
       233715       1.16906
       233720       1.16904
       233725       1.16902
       233730       1.16901
       233735       1.16899
       233740       1.16897
       233745       1.16896
       233750       1.16894
       233755       1.16892
       233760       1.16891
       233765       1.16889
       233770       1.16887
       233775       1.16886
       233780       1.16884
       233785       1.16882
       233790       1.16881
       233795       1.16879
       233800       1.16877
       233805       1.16876
       233810       1.16874
       233815       1.16872
       233820       1.16871
       233825       1.16869
       233830       1.16867
       233835       1.16866
       233840       1.16864
       233845       1.16862
       233850       1.16861
       233855       1.16859
       233860       1.16858
       233865       1.16856
       233870       1.16854
       233875       1.16853
       233880       1.16851
       233885       1.16849
       233890       1.16848
       233895       1.16846
       233900       1.16844
       233905       1.16843
       233910       1.16841
       233915       1.16839
       233920       1.16838
       233925       1.16836
       233930       1.16834
       233935       1.16833
       233940       1.16831
       233945       1.16829
       233950       1.16828
       233955       1.16826
       233960       1.16824
       233965       1.16823
       233970       1.16821
       233975       1.16819
       233980       1.16818
       233985       1.16816
       233990       1.16814
       233995       1.16813
       234000       1.16811
       234005        1.1681
       234010       1.16808
       234015       1.16806
       234020       1.16805
       234025       1.16803
       234030       1.16801
       234035         1.168
       234040       1.16798
       234045       1.16796
       234050       1.16795
       234055       1.16793
       234060       1.16791
       234065        1.1679
       234070       1.16788
       234075       1.16786
       234080       1.16785
       234085       1.16783
       234090       1.16781
       234095        1.1678
       234100       1.16778
       234105       1.16777
       234110       1.16775
       234115       1.16773
       234120       1.16772
       234125        1.1677
       234130       1.16768
       234135       1.16767
       234140       1.16765
       234145       1.16763
       234150       1.16762
       234155        1.1676
       234160       1.16758
       234165       1.16757
       234170       1.16755
       234175       1.16753
       234180       1.16752
       234185        1.1675
       234190       1.16749
       234195       1.16747
       234200       1.16745
       234205       1.16744
       234210       1.16742
       234215        1.1674
       234220       1.16739
       234225       1.16737
       234230       1.16735
       234235       1.16734
       234240       1.16732
       234245        1.1673
       234250       1.16729
       234255       1.16727
       234260       1.16726
       234265       1.16724
       234270       1.16722
       234275       1.16721
       234280       1.16719
       234285       1.16717
       234290       1.16716
       234295       1.16714
       234300       1.16712
       234305       1.16711
       234310       1.16709
       234315       1.16707
       234320       1.16706
       234325       1.16704
       234330       1.16703
       234335       1.16701
       234340       1.16699
       234345       1.16698
       234350       1.16696
       234355       1.16694
       234360       1.16693
       234365       1.16691
       234370       1.16689
       234375       1.16688
       234380       1.16686
       234385       1.16685
       234390       1.16683
       234395       1.16681
       234400        1.1668
       234405       1.16678
       234410       1.16676
       234415       1.16675
       234420       1.16673
       234425       1.16671
       234430        1.1667
       234435       1.16668
       234440       1.16667
       234445       1.16665
       234450       1.16663
       234455       1.16662
       234460        1.1666
       234465       1.16658
       234470       1.16657
       234475       1.16655
       234480       1.16654
       234485       1.16652
       234490        1.1665
       234495       1.16649
       234500       1.16647
       234505       1.16645
       234510       1.16644
       234515       1.16642
       234520        1.1664
       234525       1.16639
       234530       1.16637
       234535       1.16636
       234540       1.16634
       234545       1.16632
       234550       1.16631
       234555       1.16629
       234560       1.16627
       234565       1.16626
       234570       1.16624
       234575       1.16623
       234580       1.16621
       234585       1.16619
       234590       1.16618
       234595       1.16616
       234600       1.16614
       234605       1.16613
       234610       1.16611
       234615        1.1661
       234620       1.16608
       234625       1.16606
       234630       1.16605
       234635       1.16603
       234640       1.16601
       234645         1.166
       234650       1.16598
       234655       1.16597
       234660       1.16595
       234665       1.16593
       234670       1.16592
       234675        1.1659
       234680       1.16588
       234685       1.16587
       234690       1.16585
       234695       1.16584
       234700       1.16582
       234705        1.1658
       234710       1.16579
       234715       1.16577
       234720       1.16575
       234725       1.16574
       234730       1.16572
       234735       1.16571
       234740       1.16569
       234745       1.16567
       234750       1.16566
       234755       1.16564
       234760       1.16563
       234765       1.16561
       234770       1.16559
       234775       1.16558
       234780       1.16556
       234785       1.16554
       234790       1.16553
       234795       1.16551
       234800        1.1655
       234805       1.16548
       234810       1.16546
       234815       1.16545
       234820       1.16543
       234825       1.16541
       234830        1.1654
       234835       1.16538
       234840       1.16537
       234845       1.16535
       234850       1.16533
       234855       1.16532
       234860        1.1653
       234865       1.16529
       234870       1.16527
       234875       1.16525
       234880       1.16524
       234885       1.16522
       234890        1.1652
       234895       1.16519
       234900       1.16517
       234905       1.16516
       234910       1.16514
       234915       1.16512
       234920       1.16511
       234925       1.16509
       234930       1.16508
       234935       1.16506
       234940       1.16504
       234945       1.16503
       234950       1.16501
       234955         1.165
       234960       1.16498
       234965       1.16496
       234970       1.16495
       234975       1.16493
       234980       1.16491
       234985        1.1649
       234990       1.16488
       234995       1.16487
       235000       1.16485
       235005       1.16483
       235010       1.16482
       235015        1.1648
       235020       1.16479
       235025       1.16477
       235030       1.16475
       235035       1.16474
       235040       1.16472
       235045       1.16471
       235050       1.16469
       235055       1.16467
       235060       1.16466
       235065       1.16464
       235070       1.16463
       235075       1.16461
       235080       1.16459
       235085       1.16458
       235090       1.16456
       235095       1.16454
       235100       1.16453
       235105       1.16451
       235110        1.1645
       235115       1.16448
       235120       1.16446
       235125       1.16445
       235130       1.16443
       235135       1.16442
       235140        1.1644
       235145       1.16438
       235150       1.16437
       235155       1.16435
       235160       1.16434
       235165       1.16432
       235170        1.1643
       235175       1.16429
       235180       1.16427
       235185       1.16426
       235190       1.16424
       235195       1.16422
       235200       1.16421
       235205       1.16419
       235210       1.16418
       235215       1.16416
       235220       1.16414
       235225       1.16413
       235230       1.16411
       235235        1.1641
       235240       1.16408
       235245       1.16406
       235250       1.16405
       235255       1.16403
       235260       1.16402
       235265         1.164
       235270       1.16398
       235275       1.16397
       235280       1.16395
       235285       1.16394
       235290       1.16392
       235295        1.1639
       235300       1.16389
       235305       1.16387
       235310       1.16386
       235315       1.16384
       235320       1.16382
       235325       1.16381
       235330       1.16379
       235335       1.16378
       235340       1.16376