# Probe 0 (0.05 0.05 0.005)
#       Probe             0
#        Time
        0.001   1.19869e-09
        0.002   2.06813e-08
        0.003   1.09075e-07
        0.004   3.53556e-07
        0.005   8.84267e-07
        0.006   1.86957e-06
        0.007   3.51725e-06
        0.008    6.0745e-06
        0.009   9.82787e-06
         0.01   1.51032e-05
        0.011   2.22655e-05
        0.012   3.17188e-05
        0.013    4.3906e-05
        0.014   5.93085e-05
        0.015   7.84459e-05
        0.016   0.000101875
        0.017   0.000130192
        0.018   0.000164026
        0.019   0.000204045
         0.02    0.00025095
        0.021   0.000305476
        0.022   0.000368391
        0.023   0.000440492
        0.024   0.000522607
        0.025   0.000615589
        0.026   0.000720316
        0.027   0.000837689
        0.028   0.000968627
        0.029    0.00111406
         0.03    0.00127495
        0.031    0.00145223
        0.032    0.00164688
        0.033    0.00185984
        0.034    0.00209207
        0.035    0.00234451
        0.036    0.00261808
        0.037    0.00291368
        0.038    0.00323218
        0.039     0.0035744
         0.04    0.00394113
        0.041     0.0043331
        0.042    0.00475098
        0.043    0.00519536
        0.044    0.00566676
        0.045    0.00616561
        0.046    0.00669224
        0.047    0.00724688
        0.048    0.00782963
        0.049    0.00844048
         0.05    0.00907927
        0.051     0.0097457
        0.052     0.0104393
        0.053     0.0111595
        0.054     0.0119055
        0.055     0.0126764
        0.056     0.0134709
        0.057     0.0142879
        0.058     0.0151257
        0.059     0.0159827
         0.06     0.0168569
        0.061     0.0177463
        0.062     0.0186487
        0.063     0.0195614
        0.064     0.0204819
        0.065     0.0214074
        0.066      0.022335
        0.067     0.0232615
        0.068     0.0241837
        0.069     0.0250984
         0.07     0.0260022
        0.071     0.0268917
        0.072     0.0277636
        0.073     0.0286146
        0.074     0.0294414
        0.075      0.030241
        0.076     0.0310106
        0.077     0.0317473
        0.078      0.032449
        0.079     0.0331137
         0.08     0.0337397
        0.081      0.034326
        0.082     0.0348717
        0.083     0.0353766
        0.084     0.0358411
        0.085     0.0362657
        0.086     0.0366518
        0.087     0.0370007
        0.088     0.0373145
        0.089     0.0375951
         0.09     0.0378451
        0.091     0.0380668
        0.092     0.0382628
        0.093     0.0384356
        0.094     0.0385876
        0.095     0.0387211
        0.096     0.0388382
        0.097      0.038941
        0.098     0.0390312
        0.099     0.0391104
          0.1     0.0391801
        0.101     0.0392415
        0.102     0.0392957
        0.103     0.0393437
        0.104     0.0393862
        0.105     0.0394241
        0.106     0.0394579
        0.107     0.0394881
        0.108     0.0395152
        0.109     0.0395396
         0.11     0.0395617
        0.111     0.0395816
        0.112     0.0395997
        0.113     0.0396162
        0.114     0.0396313
        0.115     0.0396451
        0.116     0.0396577
        0.117     0.0396694
        0.118     0.0396801
        0.119     0.0396901
         0.12     0.0396993
        0.121     0.0397078
        0.122     0.0397158
        0.123     0.0397232
        0.124     0.0397301
        0.125     0.0397366
        0.126     0.0397427
        0.127     0.0397484
        0.128     0.0397537
        0.129     0.0397588
         0.13     0.0397636
        0.131     0.0397681
        0.132     0.0397724
        0.133     0.0397764
        0.134     0.0397803
        0.135     0.0397839
        0.136     0.0397874
        0.137     0.0397907
        0.138     0.0397938
        0.139     0.0397968
         0.14     0.0397997
        0.141     0.0398024
        0.142     0.0398051
        0.143     0.0398076
        0.144       0.03981
        0.145     0.0398123
        0.146     0.0398145
        0.147     0.0398167
        0.148     0.0398187
        0.149     0.0398207
         0.15     0.0398226
        0.151     0.0398244
        0.152     0.0398262
        0.153     0.0398279
        0.154     0.0398296
        0.155     0.0398312
        0.156     0.0398327
        0.157     0.0398342
        0.158     0.0398356
        0.159      0.039837
         0.16     0.0398384
        0.161     0.0398397
        0.162      0.039841
        0.163     0.0398422
        0.164     0.0398434
        0.165     0.0398446
        0.166     0.0398457
        0.167     0.0398468
        0.168     0.0398479
        0.169     0.0398489
         0.17       0.03985
        0.171      0.039851
        0.172     0.0398519
        0.173     0.0398529
        0.174     0.0398538
        0.175     0.0398547
        0.176     0.0398555
        0.177     0.0398564
        0.178     0.0398572
        0.179      0.039858
         0.18     0.0398588
        0.181     0.0398596
        0.182     0.0398604
        0.183     0.0398611
        0.184     0.0398618
        0.185     0.0398625
        0.186     0.0398632
        0.187     0.0398639
        0.188     0.0398646
        0.189     0.0398652
         0.19     0.0398658
        0.191     0.0398665
        0.192     0.0398671
        0.193     0.0398677
        0.194     0.0398683
        0.195     0.0398688
        0.196     0.0398694
        0.197       0.03987
        0.198     0.0398705
        0.199      0.039871
          0.2     0.0398716
        0.201     0.0398721
        0.202     0.0398726
        0.203     0.0398731
        0.204     0.0398736
        0.205      0.039874
        0.206     0.0398745
        0.207      0.039875
        0.208     0.0398754
        0.209     0.0398759
         0.21     0.0398763
        0.211     0.0398768
        0.212     0.0398772
        0.213     0.0398776
        0.214      0.039878
        0.215     0.0398784
        0.216     0.0398788
        0.217     0.0398792
        0.218     0.0398796
        0.219       0.03988
         0.22     0.0398803
        0.221     0.0398807
        0.222     0.0398811
        0.223     0.0398814
        0.224     0.0398818
        0.225     0.0398821
        0.226     0.0398825
        0.227     0.0398828
        0.228     0.0398832
        0.229     0.0398835
         0.23     0.0398838
        0.231     0.0398841
        0.232     0.0398844
        0.233     0.0398848
        0.234     0.0398851
        0.235     0.0398854
        0.236     0.0398857
        0.237      0.039886
        0.238     0.0398862
        0.239     0.0398865
         0.24     0.0398868
        0.241     0.0398871
        0.242     0.0398874
        0.243     0.0398876
        0.244     0.0398879
        0.245     0.0398882
        0.246     0.0398884
        0.247     0.0398887
        0.248      0.039889
        0.249     0.0398892
         0.25     0.0398895
        0.251     0.0398897
        0.252       0.03989
        0.253     0.0398902
        0.254     0.0398904
        0.255     0.0398907
        0.256     0.0398909
