# Probe 0 (0.05 0.05 0.005)
#       Probe             0
#        Time
        0.001          0.04
        0.002          0.04
        0.003     0.0399999
        0.004     0.0399996
        0.005     0.0399991
        0.006     0.0399981
        0.007     0.0399965
        0.008     0.0399939
        0.009     0.0399902
         0.01     0.0399849
        0.011     0.0399777
        0.012     0.0399683
        0.013     0.0399561
        0.014     0.0399407
        0.015     0.0399215
        0.016     0.0398981
        0.017     0.0398698
        0.018      0.039836
        0.019     0.0397959
         0.02      0.039749
        0.021     0.0396945
        0.022     0.0396316
        0.023     0.0395595
        0.024     0.0394774
        0.025     0.0393844
        0.026     0.0392797
        0.027     0.0391623
        0.028     0.0390314
        0.029     0.0388859
         0.03      0.038725
        0.031     0.0385478
        0.032     0.0383531
        0.033     0.0381401
        0.034     0.0379079
        0.035     0.0376555
        0.036     0.0373819
        0.037     0.0370863
        0.038     0.0367678
        0.039     0.0364256
         0.04     0.0360589
        0.041     0.0356669
        0.042      0.035249
        0.043     0.0348046
        0.044     0.0343332
        0.045     0.0338344
        0.046     0.0333077
        0.047     0.0327531
        0.048     0.0321704
        0.049     0.0315595
         0.05     0.0309207
        0.051     0.0302543
        0.052     0.0295607
        0.053     0.0288405
        0.054     0.0280944
        0.055     0.0273236
        0.056      0.026529
        0.057     0.0257121
        0.058     0.0248743
        0.059     0.0240173
         0.06     0.0231431
        0.061     0.0222536
        0.062     0.0213513
        0.063     0.0204386
        0.064     0.0195181
        0.065     0.0185925
        0.066      0.017665
        0.067     0.0167385
        0.068     0.0158163
        0.069     0.0149016
         0.07     0.0139978
        0.071     0.0131082
        0.072     0.0122363
        0.073     0.0113854
        0.074     0.0105585
        0.075    0.00975893
        0.076    0.00898943
        0.077    0.00825266
        0.078    0.00755094
        0.079    0.00688627
         0.08    0.00626025
        0.081    0.00567403
        0.082    0.00512833
        0.083    0.00462337
        0.084    0.00415891
        0.085    0.00373424
        0.086    0.00334821
        0.087    0.00299927
        0.088    0.00268553
        0.089    0.00240485
         0.09    0.00215488
        0.091    0.00193315
        0.092    0.00173714
        0.093    0.00156435
        0.094    0.00141237
        0.095    0.00127888
        0.096    0.00116174
        0.097    0.00105896
        0.098   0.000968768
        0.099   0.000889542
          0.1   0.000819859
        0.101   0.000758465
        0.102   0.000704261
        0.103   0.000656294
        0.104   0.000613738
        0.105   0.000575879
        0.106   0.000542104
        0.107   0.000511883
        0.108   0.000484762
        0.109   0.000460352
         0.11   0.000438316
        0.111   0.000418364
        0.112   0.000400249
        0.113   0.000383753
        0.114   0.000368692
        0.115   0.000354903
        0.116   0.000342247
        0.117   0.000330601
        0.118   0.000319859
        0.119   0.000309927
         0.12   0.000300724
        0.121   0.000292177
        0.122   0.000284224
        0.123   0.000276808
        0.124   0.000269881
        0.125   0.000263396
        0.126   0.000257317
        0.127   0.000251607
        0.128   0.000246236
        0.129   0.000241175
         0.13   0.000236399
        0.131   0.000231887
        0.132   0.000227616
        0.133    0.00022357
        0.134   0.000219731
        0.135   0.000216084
        0.136   0.000212615
        0.137   0.000209313
        0.138   0.000206164
        0.139   0.000203161
         0.14   0.000200291
        0.141   0.000197548
        0.142   0.000194922
        0.143   0.000192407
        0.144   0.000189996
        0.145   0.000187682
        0.146    0.00018546
        0.147   0.000183325
        0.148   0.000181271
        0.149   0.000179293
         0.15   0.000177389
        0.151   0.000175553
        0.152   0.000173782
        0.153   0.000172073
        0.154   0.000170422
        0.155   0.000168827
        0.156   0.000167284
        0.157   0.000165791
        0.158   0.000164347
        0.159   0.000162947
         0.16   0.000161591
        0.161   0.000160276
        0.162      0.000159
        0.163   0.000157762
        0.164    0.00015656
        0.165   0.000155392
        0.166   0.000154257
        0.167   0.000153154
        0.168   0.000152081
        0.169   0.000151036
         0.17    0.00015002
        0.171    0.00014903
        0.172   0.000148065
        0.173   0.000147125
        0.174   0.000146209
        0.175   0.000145315
        0.176   0.000144443
        0.177   0.000143592
        0.178   0.000142762
        0.179   0.000141951
         0.18   0.000141158
        0.181   0.000140384
        0.182   0.000139627
        0.183   0.000138887
        0.184   0.000138164
        0.185   0.000137456
        0.186   0.000136764
        0.187   0.000136086
        0.188   0.000135422
        0.189   0.000134773
         0.19   0.000134136
        0.191   0.000133513
        0.192   0.000132901
        0.193   0.000132303
        0.194   0.000131715
        0.195    0.00013114
        0.196   0.000130575
        0.197   0.000130021
        0.198   0.000129477
        0.199   0.000128944
          0.2    0.00012842
        0.201   0.000127906
        0.202   0.000127401
        0.203   0.000126905
        0.204   0.000126417
        0.205   0.000125939
        0.206   0.000125468
        0.207   0.000125006
        0.208   0.000124551
        0.209   0.000124104
         0.21   0.000123665
        0.211   0.000123233
        0.212   0.000122807
        0.213   0.000122389
        0.214   0.000121977
        0.215   0.000121572
        0.216   0.000121173
        0.217   0.000120781
        0.218   0.000120394
        0.219   0.000120014
         0.22   0.000119639
        0.221   0.000119269
        0.222   0.000118906
        0.223   0.000118547
        0.224   0.000118194
        0.225   0.000117846
        0.226   0.000117503
        0.227   0.000117165
        0.228   0.000116832
        0.229   0.000116503
         0.23   0.000116179
        0.231   0.000115859
        0.232   0.000115544
        0.233   0.000115233
        0.234   0.000114926
        0.235   0.000114623
        0.236   0.000114325
        0.237    0.00011403
        0.238   0.000113739
        0.239   0.000113452
         0.24   0.000113168
        0.241   0.000112888
        0.242   0.000112612
        0.243   0.000112339
        0.244    0.00011207
        0.245   0.000111803
        0.246    0.00011154
        0.247   0.000111281
        0.248   0.000111024
        0.249   0.000110771
         0.25    0.00011052
        0.251   0.000110273
        0.252   0.000110028
        0.253   0.000109786
        0.254   0.000109548
        0.255   0.000109311
        0.256   0.000109078
