# Probe 0 (0.05 0.05 0.005)
#       Probe             0
#        Time
        0.001          0.04
        0.002          0.04
        0.003     0.0399999
        0.004     0.0399996
        0.005     0.0399991
        0.006     0.0399981
        0.007     0.0399965
        0.008     0.0399939
        0.009     0.0399902
         0.01     0.0399849
        0.011     0.0399777
        0.012     0.0399683
        0.013     0.0399561
        0.014     0.0399407
        0.015     0.0399215
        0.016     0.0398981
        0.017     0.0398698
        0.018      0.039836
        0.019     0.0397959
         0.02      0.039749
        0.021     0.0396945
        0.022     0.0396316
        0.023     0.0395595
        0.024     0.0394774
        0.025     0.0393844
        0.026     0.0392797
        0.027     0.0391623
        0.028     0.0390314
        0.029     0.0388859
         0.03      0.038725
        0.031     0.0385478
        0.032     0.0383531
        0.033     0.0381402
        0.034     0.0379079
        0.035     0.0376555
        0.036     0.0373819
        0.037     0.0370863
        0.038     0.0367678
        0.039     0.0364256
         0.04     0.0360589
        0.041     0.0356669
        0.042      0.035249
        0.043     0.0348046
        0.044     0.0343332
        0.045     0.0338344
        0.046     0.0333077
        0.047     0.0327531
        0.048     0.0321704
        0.049     0.0315595
         0.05     0.0309207
        0.051     0.0302543
        0.052     0.0295607
        0.053     0.0288405
        0.054     0.0280945
        0.055     0.0273236
        0.056      0.026529
        0.057     0.0257121
        0.058     0.0248743
        0.059     0.0240173
         0.06     0.0231431
        0.061     0.0222536
        0.062     0.0213513
        0.063     0.0204386
        0.064     0.0195181
        0.065     0.0185926
        0.066      0.017665
        0.067     0.0167385
        0.068     0.0158163
        0.069     0.0149016
         0.07     0.0139978
        0.071     0.0131083
        0.072     0.0122363
        0.073     0.0113854
        0.074     0.0105585
        0.075    0.00975894
        0.076    0.00898944
        0.077    0.00825266
        0.078    0.00755095
        0.079    0.00688628
         0.08    0.00626026
        0.081    0.00567404
        0.082    0.00512834
        0.083    0.00462338
        0.084    0.00415892
        0.085    0.00373425
        0.086    0.00334822
        0.087    0.00299927
        0.088    0.00268554
        0.089    0.00240486
         0.09    0.00215489
        0.091    0.00193316
        0.092    0.00173715
        0.093    0.00156436
        0.094    0.00141238
        0.095    0.00127889
        0.096    0.00116175
        0.097    0.00105897
        0.098   0.000968777
        0.099   0.000889551
          0.1   0.000819868
        0.101   0.000758474
        0.102    0.00070427
        0.103   0.000656303
        0.104   0.000613747
        0.105   0.000575888
        0.106   0.000542113
        0.107   0.000511892
        0.108   0.000484772
        0.109   0.000460361
         0.11   0.000438325
        0.111   0.000418374
        0.112   0.000400258
        0.113   0.000383762
        0.114   0.000368701
        0.115   0.000354912
        0.116   0.000342256
        0.117    0.00033061
        0.118   0.000319868
        0.119   0.000309936
         0.12   0.000300733
        0.121   0.000292186
        0.122   0.000284233
        0.123   0.000276818
        0.124    0.00026989
        0.125   0.000263406
        0.126   0.000257326
        0.127   0.000251616
        0.128   0.000246245
        0.129   0.000241184
         0.13   0.000236409
        0.131   0.000231896
        0.132   0.000227625
        0.133   0.000223579
        0.134    0.00021974
        0.135   0.000216093
        0.136   0.000212624
        0.137   0.000209322
        0.138   0.000206174
        0.139    0.00020317
         0.14     0.0002003
        0.141   0.000197557
        0.142   0.000194932
        0.143   0.000192417
        0.144   0.000190005
        0.145   0.000187692
        0.146    0.00018547
        0.147   0.000183334
        0.148    0.00018128
        0.149   0.000179302
         0.15   0.000177398
        0.151   0.000175562
        0.152   0.000173791
        0.153   0.000172082
        0.154   0.000170431
        0.155   0.000168836
        0.156   0.000167293
        0.157   0.000165801
        0.158   0.000164356
        0.159   0.000162956
         0.16     0.0001616
        0.161   0.000160285
        0.162   0.000159009
        0.163   0.000157771
        0.164   0.000156569
        0.165   0.000155401
        0.166   0.000154267
        0.167   0.000153163
        0.168    0.00015209
        0.169   0.000151045
         0.17   0.000150029
        0.171   0.000149039
        0.172   0.000148074
        0.173   0.000147134
        0.174   0.000146218
        0.175   0.000145324
        0.176   0.000144452
        0.177   0.000143601
        0.178   0.000142771
        0.179    0.00014196
         0.18   0.000141167
        0.181   0.000140393
        0.182   0.000139636
        0.183   0.000138897
        0.184   0.000138173
        0.185   0.000137465
        0.186   0.000136773
        0.187   0.000136095
        0.188   0.000135431
        0.189   0.000134782
         0.19   0.000134145
        0.191   0.000133522
        0.192   0.000132911
        0.193   0.000132312
        0.194   0.000131724
        0.195   0.000131149
        0.196   0.000130584
        0.197    0.00013003
        0.198   0.000129486
        0.199   0.000128953
          0.2   0.000128429
        0.201   0.000127915
        0.202    0.00012741
        0.203   0.000126914
        0.204   0.000126427
        0.205   0.000125948
        0.206   0.000125477
        0.207   0.000125015
        0.208    0.00012456
        0.209   0.000124114
         0.21   0.000123674
        0.211   0.000123242
        0.212   0.000122816
        0.213   0.000122398
        0.214   0.000121986
        0.215   0.000121581
        0.216   0.000121182
        0.217    0.00012079
        0.218   0.000120403
        0.219   0.000120023
         0.22   0.000119648
        0.221   0.000119279
        0.222   0.000118915
        0.223   0.000118556
        0.224   0.000118203
        0.225   0.000117855
        0.226   0.000117512
        0.227   0.000117174
        0.228   0.000116841
        0.229   0.000116512
         0.23   0.000116188
        0.231   0.000115868
        0.232   0.000115553
        0.233   0.000115242
        0.234   0.000114935
        0.235   0.000114632
        0.236   0.000114334
        0.237   0.000114039
        0.238   0.000113748
        0.239   0.000113461
         0.24   0.000113177
        0.241   0.000112897
        0.242   0.000112621
        0.243   0.000112348
        0.244   0.000112079
        0.245   0.000111813
        0.246    0.00011155
        0.247    0.00011129
        0.248   0.000111033
        0.249    0.00011078
         0.25   0.000110529
        0.251   0.000110282
        0.252   0.000110037
        0.253   0.000109796
        0.254   0.000109557
        0.255    0.00010932
        0.256   0.000109087
