# Probe 0 (0.05 0.05 0.005)
#       Probe             0
#        Time
        0.001          0.04
        0.002          0.04
        0.003     0.0399999
        0.004     0.0399996
        0.005     0.0399991
        0.006     0.0399981
        0.007     0.0399965
        0.008     0.0399939
        0.009     0.0399901
         0.01     0.0399849
        0.011     0.0399777
        0.012     0.0399683
        0.013     0.0399561
        0.014     0.0399407
        0.015     0.0399215
        0.016     0.0398981
        0.017     0.0398698
        0.018     0.0398359
        0.019     0.0397959
         0.02      0.039749
        0.021     0.0396945
        0.022     0.0396316
        0.023     0.0395595
        0.024     0.0394774
        0.025     0.0393844
        0.026     0.0392797
        0.027     0.0391623
        0.028     0.0390313
        0.029     0.0388859
         0.03      0.038725
        0.031     0.0385477
        0.032     0.0383531
        0.033     0.0381401
        0.034     0.0379079
        0.035     0.0376555
        0.036     0.0373819
        0.037     0.0370863
        0.038     0.0367678
        0.039     0.0364256
         0.04     0.0360588
        0.041     0.0356669
        0.042      0.035249
        0.043     0.0348046
        0.044     0.0343332
        0.045     0.0338344
        0.046     0.0333077
        0.047     0.0327531
        0.048     0.0321703
        0.049     0.0315595
         0.05     0.0309207
        0.051     0.0302543
        0.052     0.0295607
        0.053     0.0288404
        0.054     0.0280944
        0.055     0.0273236
        0.056      0.026529
        0.057     0.0257121
        0.058     0.0248743
        0.059     0.0240173
         0.06      0.023143
        0.061     0.0222536
        0.062     0.0213513
        0.063     0.0204386
        0.064     0.0195181
        0.065     0.0185925
        0.066      0.017665
        0.067     0.0167385
        0.068     0.0158163
        0.069     0.0149016
         0.07     0.0139978
        0.071     0.0131082
        0.072     0.0122363
        0.073     0.0113854
        0.074     0.0105585
        0.075    0.00975893
        0.076    0.00898942
        0.077    0.00825265
        0.078    0.00755093
        0.079    0.00688626
         0.08    0.00626024
        0.081    0.00567402
        0.082    0.00512832
        0.083    0.00462336
        0.084    0.00415891
        0.085    0.00373424
        0.086     0.0033482
        0.087    0.00299926
        0.088    0.00268552
        0.089    0.00240484
         0.09    0.00215487
        0.091    0.00193314
        0.092    0.00173713
        0.093    0.00156434
        0.094    0.00141236
        0.095    0.00127887
        0.096    0.00116173
        0.097    0.00105896
        0.098    0.00096876
        0.099   0.000889533
          0.1   0.000819851
        0.101   0.000758456
        0.102   0.000704252
        0.103   0.000656286
        0.104    0.00061373
        0.105   0.000575871
        0.106   0.000542095
        0.107   0.000511874
        0.108   0.000484754
        0.109   0.000460343
         0.11   0.000438307
        0.111   0.000418356
        0.112    0.00040024
        0.113   0.000383745
        0.114   0.000368683
        0.115   0.000354895
        0.116   0.000342238
        0.117   0.000330592
        0.118    0.00031985
        0.119   0.000309918
         0.12   0.000300715
        0.121   0.000292169
        0.122   0.000284216
        0.123     0.0002768
        0.124   0.000269872
        0.125   0.000263388
        0.126   0.000257308
        0.127   0.000251599
        0.128   0.000246227
        0.129   0.000241166
         0.13   0.000236391
        0.131   0.000231878
        0.132   0.000227608
        0.133   0.000223561
        0.134   0.000219722
        0.135   0.000216075
        0.136   0.000212607
        0.137   0.000209304
        0.138   0.000206156
        0.139   0.000203152
         0.14   0.000200283
        0.141   0.000197539
        0.142   0.000194914
        0.143   0.000192399
        0.144   0.000189988
        0.145   0.000187674
        0.146   0.000185452
        0.147   0.000183316
        0.148   0.000181262
        0.149   0.000179285
         0.15    0.00017738
        0.151   0.000175544
        0.152   0.000173773
        0.153   0.000172064
        0.154   0.000170413
        0.155   0.000168818
        0.156   0.000167275
        0.157   0.000165783
        0.158   0.000164338
        0.159   0.000162939
         0.16   0.000161582
        0.161   0.000160267
        0.162   0.000158992
        0.163   0.000157754
        0.164   0.000156552
        0.165   0.000155384
        0.166   0.000154249
        0.167   0.000153145
        0.168   0.000152072
        0.169   0.000151028
         0.17   0.000150011
        0.171   0.000149021
        0.172   0.000148057
        0.173   0.000147117
        0.174     0.0001462
        0.175   0.000145306
        0.176   0.000144435
        0.177   0.000143584
        0.178   0.000142753
        0.179   0.000141942
         0.18    0.00014115
        0.181   0.000140375
        0.182   0.000139619
        0.183   0.000138879
        0.184   0.000138155
        0.185   0.000137448
        0.186   0.000136755
        0.187   0.000136077
        0.188   0.000135414
        0.189   0.000134764
         0.19   0.000134127
        0.191   0.000133504
        0.192   0.000132893
        0.193   0.000132294
        0.194   0.000131707
        0.195   0.000131131
        0.196   0.000130566
        0.197   0.000130012
        0.198   0.000129469
        0.199   0.000128935
          0.2   0.000128411
        0.201   0.000127897
        0.202   0.000127392
        0.203   0.000126896
        0.204   0.000126409
        0.205    0.00012593
        0.206    0.00012546
        0.207   0.000124997
        0.208   0.000124543
        0.209   0.000124096
         0.21   0.000123656
        0.211   0.000123224
        0.212   0.000122799
        0.213    0.00012238
        0.214   0.000121969
        0.215   0.000121564
        0.216   0.000121165
        0.217   0.000120772
        0.218   0.000120386
        0.219   0.000120005
         0.22    0.00011963
        0.221   0.000119261
        0.222   0.000118897
        0.223   0.000118539
        0.224   0.000118186
        0.225   0.000117838
        0.226   0.000117495
        0.227   0.000117156
        0.228   0.000116823
        0.229   0.000116494
         0.23    0.00011617
        0.231   0.000115851
        0.232   0.000115535
        0.233   0.000115224
        0.234   0.000114917
        0.235   0.000114615
        0.236   0.000114316
        0.237   0.000114021
        0.238    0.00011373
        0.239   0.000113443
         0.24    0.00011316
        0.241    0.00011288
        0.242   0.000112603
        0.243    0.00011233
        0.244   0.000112061
        0.245   0.000111795
        0.246   0.000111532
        0.247   0.000111272
        0.248   0.000111016
        0.249   0.000110762
         0.25   0.000110512
        0.251   0.000110264
        0.252    0.00011002
        0.253   0.000109778
        0.254   0.000109539
        0.255   0.000109303
        0.256   0.000109069
