0.000000 
-0.000000 
-0.000000 
-0.000000 
-0.000000 
-0.000000 
-0.000000 
-0.000000 
-0.000000 
-0.000000 
-0.000000 
-0.000000 
-0.000000 
-0.000000 
-0.000000 
-0.000000 
-0.000000 
-0.000000 
-0.000000 
-0.000000 
-0.000000 
-0.000000 
-0.000000 
-0.000000 
-0.000000 
-0.000000 
-0.000000 
-0.000000 
-0.000000 
-0.000000 
-0.000000 
-0.000000 
-0.000000 
-0.000000 
-0.000000 
-0.000000 
-0.000000 
-0.000000 
-0.000000 
-0.000000 
-0.000000 
-0.000000 
-0.000000 
-0.000000 
-0.000000 
-0.000000 
-0.000000 
-0.000000 
-0.000000 
-0.000000 
-0.000001 
-0.000002 
-0.000003 
-0.000025 
-0.000086 
-0.000204 
-0.000398 
-0.003187 
-0.010757 
-0.025495 
-0.049788 
-0.130895 
-0.271413 
-0.487042 
-0.792851 
-1.279561 
-1.924649 
-2.739219 
-3.725211 
-4.527068 
-5.403644 
-6.342956 
-7.328031 
-8.100720 
-8.876579 
-9.642939 
-10.386101 
-11.091750 
-11.744555 
-12.329421 
-12.832468 
-13.262743 
-13.572735 
-13.751181 
-13.792596 
-13.714492 
-13.528730 
-13.238523 
-12.851156 
-12.474792 
-12.046647 
-11.573103 
-11.061229 
-10.587161 
-10.094473 
-9.588376 
-9.073836 
-8.560416 
-8.048066 
-7.541118 
-7.043214 
-6.601006 
-6.171369 
-5.756300 
-5.357269 
-5.023553 
-4.703642 
-4.398033 
-4.106999 
-3.831913 
-3.571449 
-3.325515 
-3.093882 
-2.867439 
-2.655751 
-2.458310 
-2.274535 
-2.085973 
-1.912566 
-1.753390 
-1.607529 
-1.442624 
-1.295303 
-1.163840 
-1.046710 
-0.937196 
-0.840341 
-0.754656 
-0.678882 
-0.619246 
-0.565695 
-0.517569 
-0.474288 
-0.432081 
-0.394389 
-0.360685 
-0.330502 
-0.299769 
-0.272576 
-0.248468 
-0.227042 
-0.202038 
-0.180529 
-0.161973 
-0.145877 
-0.131637 
-0.119215 
-0.108351 
-0.098799 
-0.090800 
-0.083672 
-0.077304 
-0.071594 
-0.066242 
-0.061438 
-0.057116 
-0.053214 
-0.049446 
-0.046051 
-0.042982 
-0.040201 
-0.037469 
-0.035000 
-0.032762 
-0.030727 
-0.028707 
-0.026877 
-0.025215 
-0.023701 
-0.022185 
-0.020810 
-0.019558 
-0.018416 
-0.017266 
-0.016221 
-0.015269 
-0.014399 
-0.013518 
-0.012717 
-0.011986 
-0.011317 
-0.010638 
-0.010019 
-0.009453 
-0.008936 
-0.008408 
-0.007927 
-0.007487 
-0.007084 
-0.006672 
-0.006296 
-0.005952 
-0.005636 
-0.005313 
-0.005017 
-0.004747 
-0.004499 
-0.004243 
-0.004010 
-0.003797 
-0.003601 
-0.003557 
-0.003514 
-0.003472 
-0.003431 
