# Probe 0 (0.05 0.05 0.005)
#       Probe             0
#        Time
        0.001   2.94858e-10
        0.002   5.08726e-09
        0.003   2.68306e-08
        0.004   8.69691e-08
        0.005   2.17516e-07
        0.006   4.59883e-07
        0.007   8.65186e-07
        0.008   1.49423e-06
        0.009    2.4175e-06
         0.01   3.71514e-06
        0.011   5.47695e-06
        0.012    7.8023e-06
        0.013   1.08001e-05
        0.014   1.45889e-05
        0.015   1.92963e-05
        0.016   2.50595e-05
        0.017   3.20247e-05
        0.018   4.03472e-05
        0.019   5.01909e-05
         0.02   6.17283e-05
        0.021   7.51403e-05
        0.022   9.06154e-05
        0.023    0.00010835
        0.024   0.000128547
        0.025   0.000151417
        0.026   0.000177176
        0.027   0.000206044
        0.028   0.000238247
        0.029   0.000274016
         0.03   0.000313583
        0.031   0.000357182
        0.032   0.000405049
        0.033   0.000457419
        0.034   0.000514525
        0.035   0.000576598
        0.036   0.000643865
        0.037   0.000716544
        0.038   0.000794849
        0.039   0.000878982
         0.04   0.000969135
        0.041    0.00106549
        0.042     0.0011682
        0.043    0.00127742
        0.044    0.00139327
        0.045    0.00151586
        0.046    0.00164526
        0.047    0.00178153
        0.048     0.0019247
        0.049    0.00207475
         0.05    0.00223166
        0.051    0.00239533
        0.052    0.00256566
        0.053     0.0027425
        0.054    0.00292565
        0.055    0.00311488
        0.056     0.0033099
        0.057    0.00351039
        0.058    0.00371597
        0.059    0.00392622
         0.06    0.00414068
        0.061    0.00435883
        0.062     0.0045801
        0.063     0.0048039
        0.064    0.00502958
        0.065    0.00525644
        0.066    0.00548376
        0.067    0.00571079
        0.068    0.00593674
        0.069    0.00616081
         0.07    0.00638218
        0.071    0.00660002
        0.072    0.00681351
        0.073    0.00702185
        0.074    0.00722424
        0.075    0.00741994
        0.076    0.00760825
        0.077    0.00778853
        0.078    0.00796021
        0.079    0.00812281
         0.08    0.00827593
        0.081     0.0084193
        0.082    0.00855275
        0.083    0.00867623
        0.084    0.00878979
        0.085    0.00889362
        0.086    0.00898799
        0.087    0.00907329
        0.088    0.00914998
        0.089    0.00921859
         0.09    0.00927968
        0.091    0.00933387
        0.092    0.00938178
        0.093      0.009424
        0.094    0.00946115
        0.095    0.00949377
        0.096    0.00952239
        0.097    0.00954751
        0.098    0.00956955
        0.099    0.00958891
          0.1    0.00960593
        0.101    0.00962094
        0.102    0.00963418
        0.103     0.0096459
        0.104     0.0096563
        0.105    0.00966555
        0.106     0.0096738
        0.107    0.00968119
        0.108    0.00968781
        0.109    0.00969378
         0.11    0.00969916
        0.111    0.00970404
        0.112    0.00970846
        0.113    0.00971249
        0.114    0.00971617
        0.115    0.00971954
        0.116    0.00972264
        0.117    0.00972548
        0.118    0.00972811
        0.119    0.00973053
         0.12    0.00973278
        0.121    0.00973487
        0.122    0.00973681
        0.123    0.00973862
        0.124    0.00974032
        0.125     0.0097419
        0.126    0.00974339
        0.127    0.00974478
        0.128    0.00974609
        0.129    0.00974733
         0.13     0.0097485
        0.131     0.0097496
        0.132    0.00975064
        0.133    0.00975163
        0.134    0.00975257
        0.135    0.00975346
        0.136    0.00975431
        0.137    0.00975512
        0.138    0.00975589
        0.139    0.00975662
         0.14    0.00975732
        0.141    0.00975799
        0.142    0.00975863
        0.143    0.00975925
        0.144    0.00975984
        0.145     0.0097604
        0.146    0.00976094
        0.147    0.00976147
        0.148    0.00976197
        0.149    0.00976245
         0.15    0.00976292
        0.151    0.00976337
        0.152     0.0097638
        0.153    0.00976422
        0.154    0.00976462
        0.155    0.00976501
        0.156    0.00976539
        0.157    0.00976575
        0.158     0.0097661
        0.159    0.00976645
         0.16    0.00976678
        0.161     0.0097671
        0.162    0.00976741
        0.163    0.00976771
        0.164    0.00976801
        0.165    0.00976829
        0.166    0.00976857
        0.167    0.00976884
        0.168     0.0097691
        0.169    0.00976936
         0.17     0.0097696
        0.171    0.00976985
        0.172    0.00977008
        0.173    0.00977031
        0.174    0.00977054
        0.175    0.00977075
        0.176    0.00977097
        0.177    0.00977117
        0.178    0.00977138
        0.179    0.00977158
         0.18    0.00977177
        0.181    0.00977196
        0.182    0.00977214
        0.183    0.00977232
        0.184     0.0097725
        0.185    0.00977267
        0.186    0.00977284
        0.187    0.00977301
        0.188    0.00977317
        0.189    0.00977333
         0.19    0.00977348
        0.191    0.00977364
        0.192    0.00977379
        0.193    0.00977393
        0.194    0.00977408
        0.195    0.00977422
        0.196    0.00977436
        0.197    0.00977449
        0.198    0.00977462
        0.199    0.00977475
          0.2    0.00977488
        0.201    0.00977501
        0.202    0.00977513
        0.203    0.00977525
        0.204    0.00977537
        0.205    0.00977549
        0.206     0.0097756
        0.207    0.00977572
        0.208    0.00977583
        0.209    0.00977594
         0.21    0.00977604
        0.211    0.00977615
        0.212    0.00977625
        0.213    0.00977636
        0.214    0.00977646
        0.215    0.00977655
        0.216    0.00977665
        0.217    0.00977675
        0.218    0.00977684
        0.219    0.00977694
         0.22    0.00977703
        0.221    0.00977712
        0.222    0.00977721
        0.223    0.00977729
        0.224    0.00977738
        0.225    0.00977747
        0.226    0.00977755
        0.227    0.00977763
        0.228    0.00977771
        0.229    0.00977779
         0.23    0.00977787
        0.231    0.00977795
        0.232    0.00977803
        0.233     0.0097781
        0.234    0.00977818
        0.235    0.00977825
        0.236    0.00977833
        0.237     0.0097784
        0.238    0.00977847
        0.239    0.00977854
         0.24    0.00977861
        0.241    0.00977868
        0.242    0.00977874
        0.243    0.00977881
        0.244    0.00977888
        0.245    0.00977894
        0.246    0.00977901
        0.247    0.00977907
        0.248    0.00977913
        0.249    0.00977919
         0.25    0.00977926
        0.251    0.00977932
        0.252    0.00977938
        0.253    0.00977943
        0.254    0.00977949
        0.255    0.00977955
        0.256    0.00977961
