# Probe 0 (0.05 0.05 0.005)
#       Probe             0
#        Time
        0.001   0.000976104
        0.002   0.000976103
        0.003   0.000976101
        0.004   0.000976095
        0.005   0.000976082
        0.006   0.000976058
        0.007   0.000976018
        0.008   0.000975955
        0.009   0.000975863
         0.01   0.000975734
        0.011   0.000975559
        0.012   0.000975327
        0.013   0.000975029
        0.014   0.000974652
        0.015   0.000974183
        0.016    0.00097361
        0.017   0.000972916
        0.018   0.000972088
        0.019   0.000971108
         0.02    0.00096996
        0.021   0.000968625
        0.022   0.000967084
        0.023   0.000965319
        0.024   0.000963309
        0.025   0.000961032
        0.026   0.000958469
        0.027   0.000955595
        0.028    0.00095239
        0.029   0.000948829
         0.03   0.000944891
        0.031   0.000940551
        0.032   0.000935787
        0.033   0.000930574
        0.034    0.00092489
        0.035   0.000918711
        0.036   0.000912016
        0.037   0.000904782
        0.038   0.000896988
        0.039   0.000888613
         0.04    0.00087964
        0.041   0.000870049
        0.042   0.000859825
        0.043   0.000848954
        0.044   0.000837423
        0.045   0.000825221
        0.046    0.00081234
        0.047   0.000798776
        0.048   0.000784526
        0.049    0.00076959
         0.05   0.000753972
        0.051   0.000737681
        0.052   0.000720726
        0.053   0.000703124
        0.054   0.000684894
        0.055   0.000666059
        0.056   0.000646647
        0.057   0.000626691
        0.058   0.000606228
        0.059     0.0005853
         0.06   0.000563953
        0.061   0.000542239
        0.062   0.000520214
        0.063   0.000497937
        0.064   0.000475474
        0.065   0.000452893
        0.066   0.000430265
        0.067   0.000407667
        0.068   0.000385176
        0.069   0.000362872
         0.07   0.000340838
        0.071   0.000319154
        0.072   0.000297903
        0.073   0.000277166
        0.074    0.00025702
        0.075   0.000237539
        0.076   0.000218795
        0.077    0.00020085
        0.078   0.000183761
        0.079   0.000167576
         0.08   0.000152334
        0.081   0.000138062
        0.082   0.000124778
        0.083   0.000112487
        0.084   0.000101183
        0.085   9.08477e-05
        0.086   8.14535e-05
        0.087   7.29624e-05
        0.088   6.53285e-05
        0.089   5.84993e-05
         0.09   5.24175e-05
        0.091    4.7023e-05
        0.092   4.22544e-05
        0.093    3.8051e-05
        0.094   3.43537e-05
        0.095   3.11064e-05
        0.096   2.82569e-05
        0.097   2.57569e-05
        0.098   2.35629e-05
        0.099   2.16358e-05
          0.1   1.99408e-05
        0.101   1.84475e-05
        0.102    1.7129e-05
        0.103   1.59623e-05
        0.104   1.49272e-05
        0.105   1.40064e-05
        0.106   1.31849e-05
        0.107   1.24498e-05
        0.108   1.17902e-05
        0.109   1.11964e-05
         0.11   1.06605e-05
        0.111   1.01752e-05
        0.112   9.73459e-06
        0.113   9.33339e-06
        0.114   8.96706e-06
        0.115    8.6317e-06
        0.116   8.32387e-06
        0.117   8.04062e-06
        0.118   7.77934e-06
        0.119   7.53778e-06
         0.12   7.31394e-06
        0.121   7.10608e-06
        0.122   6.91265e-06
        0.123   6.73229e-06
        0.124   6.56379e-06
        0.125   6.40608e-06
        0.126   6.25822e-06
        0.127   6.11935e-06
        0.128   5.98871e-06
        0.129   5.86562e-06
         0.13   5.74948e-06
        0.131   5.63972e-06
        0.132   5.53586e-06
        0.133   5.43744e-06
        0.134   5.34407e-06
        0.135   5.25537e-06
        0.136   5.17101e-06
        0.137   5.09068e-06
        0.138   5.01412e-06
        0.139   4.94106e-06
         0.14   4.87127e-06
        0.141   4.80455e-06
        0.142   4.74069e-06
        0.143   4.67953e-06
        0.144   4.62088e-06
        0.145   4.56461e-06
        0.146   4.51057e-06
        0.147   4.45862e-06
        0.148   4.40867e-06
        0.149   4.36058e-06
         0.15   4.31425e-06
        0.151    4.2696e-06
        0.152   4.22653e-06
        0.153   4.18496e-06
        0.154   4.14481e-06
        0.155   4.10601e-06
        0.156   4.06849e-06
        0.157   4.03219e-06
        0.158   3.99705e-06
        0.159   3.96301e-06
         0.16   3.93003e-06
        0.161   3.89805e-06
        0.162   3.86702e-06
        0.163   3.83691e-06
        0.164   3.80768e-06
        0.165   3.77927e-06
        0.166   3.75167e-06
        0.167   3.72484e-06
        0.168   3.69873e-06
        0.169   3.67333e-06
         0.17   3.64861e-06
        0.171   3.62453e-06
        0.172   3.60107e-06
        0.173   3.57821e-06
        0.174   3.55592e-06
        0.175   3.53418e-06
        0.176   3.51298e-06
        0.177   3.49228e-06
        0.178   3.47208e-06
        0.179   3.45235e-06
         0.18   3.43308e-06
        0.181   3.41425e-06
        0.182   3.39585e-06
        0.183   3.37786e-06
        0.184   3.36026e-06
        0.185   3.34305e-06
        0.186    3.3262e-06
        0.187   3.30972e-06
        0.188   3.29358e-06
        0.189   3.27778e-06
         0.19    3.2623e-06
        0.191   3.24713e-06
        0.192   3.23227e-06
        0.193    3.2177e-06
        0.194   3.20342e-06
        0.195   3.18942e-06
        0.196   3.17568e-06
        0.197   3.16221e-06
        0.198   3.14899e-06
        0.199   3.13601e-06
          0.2   3.12327e-06
        0.201   3.11077e-06
        0.202   3.09849e-06
        0.203   3.08642e-06
        0.204   3.07457e-06
        0.205   3.06293e-06
        0.206   3.05149e-06
        0.207   3.04024e-06
        0.208   3.02919e-06
        0.209   3.01832e-06
         0.21   3.00763e-06
        0.211   2.99711e-06
        0.212   2.98677e-06
        0.213    2.9766e-06
        0.214   2.96658e-06
        0.215   2.95673e-06
        0.216   2.94703e-06
        0.217   2.93748e-06
        0.218   2.92808e-06
        0.219   2.91882e-06
         0.22   2.90971e-06
        0.221   2.90073e-06
        0.222   2.89188e-06
        0.223   2.88316e-06
        0.224   2.87457e-06
        0.225   2.86611e-06
        0.226   2.85777e-06
        0.227   2.84954e-06
        0.228   2.84144e-06
        0.229   2.83344e-06
         0.23   2.82556e-06
        0.231   2.81778e-06
        0.232   2.81012e-06
        0.233   2.80255e-06
        0.234   2.79509e-06
        0.235   2.78773e-06
        0.236   2.78046e-06
        0.237   2.77329e-06
        0.238   2.76622e-06
        0.239   2.75923e-06
         0.24   2.75234e-06
        0.241   2.74553e-06
        0.242   2.73881e-06
        0.243   2.73217e-06
        0.244   2.72562e-06
        0.245   2.71914e-06
        0.246   2.71275e-06
        0.247   2.70643e-06
        0.248   2.70019e-06
        0.249   2.69403e-06
         0.25   2.68794e-06
        0.251   2.68192e-06
        0.252   2.67597e-06
        0.253   2.67009e-06
        0.254   2.66428e-06
        0.255   2.65853e-06
        0.256   2.65286e-06
