# Probe 0 (0.05 0.05 0.005)
#       Probe             0
#        Time
        0.001       73.8851
        0.002       300.062
        0.003        680.61
        0.004       1216.08
        0.005       1909.03
        0.006       2759.47
        0.007       3767.37
        0.008       4932.73
        0.009       6255.51
         0.01       7735.69
        0.011       9373.19
        0.012       11167.9
        0.013       13119.8
        0.014       15228.8
        0.015       17494.5
        0.016         19917
        0.017       22495.8
        0.018       25230.7
        0.019       28121.3
         0.02       31167.3
        0.021         34368
        0.022       37722.9
        0.023       41231.4
        0.024       44892.5
        0.025       48705.5
        0.026       52669.4
        0.027       56782.9
        0.028       61044.9
        0.029       65453.9
         0.03       70008.2
        0.031       74706.3
        0.032         79546
        0.033       84525.3
        0.034       89641.9
        0.035       94893.2
        0.036        100276
        0.037        105788
        0.038        111426
        0.039        117186
         0.04        123064
        0.041        129056
        0.042        135158
        0.043        141365
        0.044        147672
        0.045        154074
        0.046        160565
        0.047        167139
        0.048        173789
        0.049        180509
         0.05        187292
        0.051        194130
        0.052        201016
        0.053        207940
        0.054        214895
        0.055        221871
        0.056        228858
        0.057        235848
        0.058        242830
        0.059        249792
         0.06        256725
        0.061        263617
        0.062        270456
        0.063        277230
        0.064        283927
        0.065        290534
        0.066        297040
        0.067        303430
        0.068        309692
        0.069        315814
         0.07        321782
        0.071        327583
        0.072        333205
        0.073        338637
        0.074        343867
        0.075        348883
        0.076        353677
        0.077        358240
        0.078        362564
        0.079        366644
         0.08        370475
        0.081        374056
        0.082        377385
        0.083        380465
        0.084        383300
        0.085        385896
        0.086        388260
        0.087        390403
        0.088        392336
        0.089        394072
         0.09        395624
        0.091        397008
        0.092        398237
        0.093        399325
        0.094        400288
        0.095        401139
        0.096        401889
        0.097        402551
        0.098        403135
        0.099        403651
          0.1        404107
        0.101        404512
        0.102        404870
        0.103        405190
        0.104        405474
        0.105        405729
        0.106        405957
        0.107        406162
        0.108        406347
        0.109        406514
         0.11        406665
        0.111        406803
        0.112        406929
        0.113        407044
        0.114        407149
        0.115        407246
        0.116        407335
        0.117        407418
        0.118        407494
        0.119        407565
         0.12        407631
        0.121        407692
        0.122        407749
        0.123        407803
        0.124        407853
        0.125        407900
        0.126        407945
        0.127        407986
        0.128        408026
        0.129        408063
         0.13        408098
        0.131        408132
        0.132        408163
        0.133        408193
        0.134        408222
        0.135        408249
        0.136        408275
        0.137        408300
        0.138        408324
        0.139        408347
         0.14        408368
        0.141        408389
        0.142        408409
        0.143        408428
        0.144        408447
        0.145        408464
        0.146        408481
        0.147        408498
        0.148        408514
        0.149        408529
         0.15        408544
        0.151        408558
        0.152        408572
        0.153        408585
        0.154        408598
        0.155        408610
        0.156        408623
        0.157        408634
        0.158        408646
        0.159        408657
         0.16        408667
        0.161        408678
        0.162        408688
        0.163        408698
        0.164        408707
        0.165        408717
        0.166        408726
        0.167        408735
        0.168        408743
        0.169        408752
         0.17        408760
        0.171        408768
        0.172        408775
        0.173        408783
        0.174        408790
        0.175        408798
        0.176        408805
        0.177        408812
        0.178        408818
        0.179        408825
         0.18        408832
        0.181        408838
        0.182        408844
        0.183        408850
        0.184        408856
        0.185        408862
        0.186        408868
        0.187        408873
        0.188        408879
        0.189        408884
         0.19        408889
        0.191        408895
        0.192        408900
        0.193        408905
        0.194        408910
        0.195        408914
        0.196        408919
        0.197        408924
        0.198        408928
        0.199        408933
          0.2        408937
        0.201        408942
        0.202        408946
        0.203        408950
        0.204        408954
        0.205        408958
        0.206        408962
        0.207        408966
        0.208        408970
        0.209        408974
         0.21        408978
        0.211        408981
        0.212        408985
        0.213        408988
        0.214        408992
        0.215        408995
        0.216        408999
        0.217        409002
        0.218        409006
        0.219        409009
         0.22        409012
        0.221        409015
        0.222        409018
        0.223        409022
        0.224        409025
        0.225        409028
        0.226        409031
        0.227        409034
        0.228        409036
        0.229        409039
         0.23        409042
        0.231        409045
        0.232        409048
        0.233        409050
        0.234        409053
        0.235        409056
        0.236        409058
        0.237        409061
        0.238        409064
        0.239        409066
         0.24        409069
        0.241        409071
        0.242        409074
        0.243        409076
        0.244        409078
        0.245        409081
        0.246        409083
        0.247        409085
        0.248        409088
        0.249        409090
         0.25        409092
        0.251        409094
        0.252        409097
        0.253        409099
        0.254        409101
        0.255        409103
        0.256        409105
