# Probe 0 (0.05 0.05 0.005)
#       Probe             0
#        Time
        0.001   0.000144062
        0.002    0.00118803
        0.003    0.00407485
        0.004    0.00975659
        0.005      0.019235
        0.006     0.0334915
        0.007     0.0535076
        0.008     0.0802643
        0.009      0.114742
         0.01      0.157921
        0.011      0.210778
        0.012      0.274291
        0.013      0.349434
        0.014      0.437178
        0.015       0.53849
        0.016      0.654333
        0.017      0.785663
        0.018      0.933429
        0.019       1.09857
         0.02       1.28202
        0.021       1.48469
        0.022       1.70749
        0.023        1.9513
        0.024       2.21699
        0.025        2.5054
        0.026       2.81736
        0.027       3.15366
        0.028       3.51507
        0.029       3.90229
         0.03       4.31604
        0.031       4.75694
        0.032        5.2256
        0.033       5.72256
        0.034       6.24832
        0.035       6.80331
        0.036       7.38787
        0.037       8.00231
        0.038       8.64684
        0.039       9.32159
         0.04       10.0266
        0.041       10.7618
        0.042       11.5271
        0.043       12.3221
        0.044       13.1466
        0.045            14
        0.046       14.8818
        0.047       15.7911
        0.048       16.7271
        0.049       17.6889
         0.05       18.6751
        0.051       19.6846
        0.052       20.7159
        0.053       21.7673
        0.054       22.8371
        0.055       23.9234
        0.056       25.0241
        0.057       26.1369
        0.058       27.2595
        0.059       28.3892
         0.06       29.5234
        0.061       30.6592
        0.062       31.7936
        0.063       32.9235
        0.064       34.0456
        0.065       35.1566
        0.066       36.2531
        0.067       37.3316
        0.068       38.3884
        0.069       39.4202
         0.07       40.4232
        0.071       41.3941
        0.072       42.3294
        0.073       43.2259
        0.074       44.0804
        0.075       44.8902
        0.076       45.6526
        0.077       46.3654
        0.078       47.0268
        0.079       47.6354
         0.08       48.1904
        0.081       48.6913
        0.082       49.1383
        0.083       49.5323
        0.084       49.8746
        0.085       50.1671
        0.086       50.4122
        0.087       50.6127
        0.088       50.7718
        0.089       50.8929
         0.09       50.9796
        0.091       51.0358
        0.092       51.0649
        0.093       51.0705
        0.094       51.0559
        0.095       51.0243
        0.096       50.9785
        0.097        50.921
        0.098        50.854
        0.099       50.7795
          0.1       50.6992
        0.101       50.6144
        0.102       50.5264
        0.103       50.4361
        0.104       50.3444
        0.105       50.2519
        0.106       50.1591
        0.107       50.0665
        0.108       49.9745
        0.109       49.8832
         0.11        49.793
        0.111       49.7038
        0.112        49.616
        0.113       49.5295
        0.114       49.4443
        0.115       49.3607
        0.116       49.2785
        0.117       49.1977
        0.118       49.1184
        0.119       49.0405
         0.12       48.9641
        0.121        48.889
        0.122       48.8153
        0.123        48.743
        0.124        48.672
        0.125       48.6022
        0.126       48.5336
        0.127       48.4663
        0.128       48.4001
        0.129       48.3351
         0.13       48.2711
        0.131       48.2082
        0.132       48.1464
        0.133       48.0855
        0.134       48.0257
        0.135       47.9667
        0.136       47.9087
        0.137       47.8515
        0.138       47.7953
        0.139       47.7398
         0.14       47.6852
        0.141       47.6313
        0.142       47.5782
        0.143       47.5258
        0.144       47.4742
        0.145       47.4232
        0.146        47.373
        0.147       47.3233
        0.148       47.2744
        0.149        47.226
         0.15       47.1783
        0.151       47.1311
        0.152       47.0845
        0.153       47.0385
        0.154        46.993
        0.155        46.948
        0.156       46.9036
        0.157       46.8596
        0.158       46.8162
        0.159       46.7732
         0.16       46.7307
        0.161       46.6887
        0.162       46.6471
        0.163       46.6059
        0.164       46.5652
        0.165       46.5248
        0.166       46.4849
        0.167       46.4454
        0.168       46.4062
        0.169       46.3675
         0.17       46.3291
        0.171        46.291
        0.172       46.2534
        0.173        46.216
        0.174        46.179
        0.175       46.1424
        0.176        46.106
        0.177         46.07
        0.178       46.0343
        0.179       45.9989
         0.18       45.9638
        0.181        45.929
        0.182       45.8945
        0.183       45.8603
        0.184       45.8263
        0.185       45.7927
        0.186       45.7593
        0.187       45.7261
        0.188       45.6932
        0.189       45.6606
         0.19       45.6282
        0.191       45.5961
        0.192       45.5642
        0.193       45.5325
        0.194       45.5011
        0.195       45.4699
        0.196       45.4389
        0.197       45.4081
        0.198       45.3776
        0.199       45.3472
          0.2       45.3171
        0.201       45.2872
        0.202       45.2575
        0.203        45.228
        0.204       45.1987
        0.205       45.1696
        0.206       45.1406
        0.207       45.1119
        0.208       45.0833
        0.209        45.055
         0.21       45.0268
        0.211       44.9987
        0.212       44.9709
        0.213       44.9432
        0.214       44.9157
        0.215       44.8884
        0.216       44.8612
        0.217       44.8342
        0.218       44.8074
        0.219       44.7807
         0.22       44.7541
        0.221       44.7278
        0.222       44.7015
        0.223       44.6754
        0.224       44.6495
        0.225       44.6237
        0.226       44.5981
        0.227       44.5726
        0.228       44.5472
        0.229        44.522
         0.23       44.4969
        0.231       44.4719
        0.232       44.4471
        0.233       44.4224
        0.234       44.3978
        0.235       44.3734
        0.236       44.3491
        0.237       44.3249
        0.238       44.3008
        0.239       44.2769
         0.24       44.2531
        0.241       44.2294
        0.242       44.2058
        0.243       44.1823
        0.244        44.159
        0.245       44.1357
        0.246       44.1126
        0.247       44.0896
        0.248       44.0667
        0.249       44.0439
         0.25       44.0212
        0.251       43.9986
        0.252       43.9761
        0.253       43.9538
        0.254       43.9315
        0.255       43.9093
        0.256       43.8872
