# Probe 0 (0.05 0.05 0.005)
#       Probe             0
#        Time
        0.001   3.78935e+07
        0.002   7.57869e+07
        0.003    1.1368e+08
        0.004   1.51574e+08
        0.005   1.89467e+08
        0.006    2.2736e+08
        0.007   2.65253e+08
        0.008   3.03146e+08
        0.009   3.41038e+08
         0.01    3.7893e+08
        0.011    4.1682e+08
        0.012    4.5471e+08
        0.013   4.92597e+08
        0.014   5.30483e+08
        0.015   5.68365e+08
        0.016   6.06244e+08
        0.017   6.44119e+08
        0.018   6.81989e+08
        0.019   7.19854e+08
         0.02   7.57711e+08
        0.021    7.9556e+08
        0.022   8.33399e+08
        0.023   8.71228e+08
        0.024   9.09044e+08
        0.025   9.46845e+08
        0.026   9.84631e+08
        0.027    1.0224e+09
        0.028   1.06015e+09
        0.029   1.09787e+09
         0.03   1.13557e+09
        0.031   1.17324e+09
        0.032   1.21088e+09
        0.033   1.24848e+09
        0.034   1.28605e+09
        0.035   1.32358e+09
        0.036   1.36106e+09
        0.037   1.39849e+09
        0.038   1.43587e+09
        0.039    1.4732e+09
         0.04   1.51045e+09
        0.041   1.54765e+09
        0.042   1.58477e+09
        0.043   1.62181e+09
        0.044   1.65876e+09
        0.045   1.69563e+09
        0.046   1.73239e+09
        0.047   1.76906e+09
        0.048   1.80561e+09
        0.049   1.84204e+09
         0.05   1.87835e+09
        0.051   1.91452e+09
        0.052   1.95055e+09
        0.053   1.98642e+09
        0.054   2.02213e+09
        0.055   2.05767e+09
        0.056   2.09303e+09
        0.057   2.12819e+09
        0.058   2.16315e+09
        0.059   2.19788e+09
         0.06   2.23239e+09
        0.061   2.26665e+09
        0.062   2.30066e+09
        0.063   2.33439e+09
        0.064   2.36783e+09
        0.065   2.40097e+09
        0.066   2.43379e+09
        0.067   2.46627e+09
        0.068   2.49839e+09
        0.069   2.53014e+09
         0.07   2.56148e+09
        0.071   2.59241e+09
        0.072    2.6229e+09
        0.073   2.65293e+09
        0.074   2.68247e+09
        0.075   2.71149e+09
        0.076   2.73999e+09
        0.077   2.76792e+09
        0.078   2.79527e+09
        0.079   2.82201e+09
         0.08   2.84812e+09
        0.081   2.87357e+09
        0.082   2.89834e+09
        0.083   2.92241e+09
        0.084   2.94577e+09
        0.085   2.96839e+09
        0.086   2.99026e+09
        0.087   3.01139e+09
        0.088   3.03175e+09
        0.089   3.05136e+09
         0.09   3.07021e+09
        0.091   3.08833e+09
        0.092    3.1057e+09
        0.093   3.12237e+09
        0.094   3.13834e+09
        0.095   3.15364e+09
        0.096   3.16829e+09
        0.097   3.18233e+09
        0.098   3.19578e+09
        0.099   3.20866e+09
          0.1   3.22102e+09
        0.101   3.23287e+09
        0.102   3.24425e+09
        0.103   3.25518e+09
        0.104   3.26569e+09
        0.105   3.27581e+09
        0.106   3.28556e+09
        0.107   3.29496e+09
        0.108   3.30404e+09
        0.109   3.31281e+09
         0.11   3.32129e+09
        0.111    3.3295e+09
        0.112   3.33746e+09
        0.113   3.34518e+09
        0.114   3.35267e+09
        0.115   3.35995e+09
        0.116   3.36703e+09
        0.117   3.37392e+09
        0.118   3.38064e+09
        0.119   3.38718e+09
         0.12   3.39356e+09
        0.121    3.3998e+09
        0.122   3.40589e+09
        0.123   3.41184e+09
        0.124   3.41766e+09
        0.125   3.42336e+09
        0.126   3.42894e+09
        0.127    3.4344e+09
        0.128   3.43976e+09
        0.129   3.44502e+09
         0.13   3.45018e+09
        0.131   3.45525e+09
        0.132   3.46022e+09
        0.133   3.46511e+09
        0.134   3.46992e+09
        0.135   3.47465e+09
        0.136    3.4793e+09
        0.137   3.48388e+09
        0.138   3.48839e+09
        0.139   3.49283e+09
         0.14    3.4972e+09
        0.141   3.50151e+09
        0.142   3.50576e+09
        0.143   3.50996e+09
        0.144   3.51409e+09
        0.145   3.51817e+09
        0.146    3.5222e+09
        0.147   3.52618e+09
        0.148   3.53011e+09
        0.149   3.53398e+09
         0.15   3.53782e+09
        0.151    3.5416e+09
        0.152   3.54535e+09
        0.153   3.54905e+09
        0.154   3.55271e+09
        0.155   3.55633e+09
        0.156   3.55991e+09
        0.157   3.56345e+09
        0.158   3.56696e+09
        0.159   3.57042e+09
         0.16   3.57386e+09
        0.161   3.57726e+09
        0.162   3.58063e+09
        0.163   3.58396e+09
        0.164   3.58727e+09
        0.165   3.59054e+09
        0.166   3.59378e+09
        0.167     3.597e+09
        0.168   3.60018e+09
        0.169   3.60334e+09
         0.17   3.60647e+09
        0.171   3.60958e+09
        0.172   3.61265e+09
        0.173   3.61571e+09
        0.174   3.61873e+09
        0.175   3.62174e+09
        0.176   3.62472e+09
        0.177   3.62767e+09
        0.178   3.63061e+09
        0.179   3.63352e+09
         0.18   3.63641e+09
        0.181   3.63928e+09
        0.182   3.64212e+09
        0.183   3.64495e+09
        0.184   3.64776e+09
        0.185   3.65054e+09
        0.186   3.65331e+09
        0.187   3.65606e+09
        0.188   3.65879e+09
        0.189    3.6615e+09
         0.19   3.66419e+09
        0.191   3.66687e+09
        0.192   3.66953e+09
        0.193   3.67217e+09
        0.194   3.67479e+09
        0.195    3.6774e+09
        0.196      3.68e+09
        0.197   3.68257e+09
        0.198   3.68513e+09
        0.199   3.68768e+09
          0.2   3.69021e+09
        0.201   3.69272e+09
        0.202   3.69523e+09
        0.203   3.69771e+09
        0.204   3.70019e+09
        0.205   3.70264e+09
        0.206   3.70509e+09
        0.207   3.70752e+09
        0.208   3.70994e+09
        0.209   3.71235e+09
         0.21   3.71474e+09
        0.211   3.71712e+09
        0.212   3.71949e+09
        0.213   3.72184e+09
        0.214   3.72418e+09
        0.215   3.72651e+09
        0.216   3.72883e+09
        0.217   3.73114e+09
        0.218   3.73344e+09
        0.219   3.73572e+09
         0.22     3.738e+09
        0.221   3.74026e+09
        0.222   3.74251e+09
        0.223   3.74476e+09
        0.224   3.74699e+09
        0.225   3.74921e+09
        0.226   3.75142e+09
        0.227   3.75362e+09
        0.228   3.75581e+09
        0.229   3.75799e+09
         0.23   3.76016e+09
        0.231   3.76232e+09
        0.232   3.76448e+09
        0.233   3.76662e+09
        0.234   3.76875e+09
        0.235   3.77088e+09
        0.236   3.77299e+09
        0.237    3.7751e+09
        0.238    3.7772e+09
        0.239   3.77929e+09
         0.24   3.78137e+09
        0.241   3.78344e+09
        0.242    3.7855e+09
        0.243   3.78756e+09
        0.244    3.7896e+09
        0.245   3.79164e+09
        0.246   3.79367e+09
        0.247    3.7957e+09
        0.248   3.79771e+09
        0.249   3.79972e+09
         0.25   3.80172e+09
        0.251   3.80371e+09
        0.252    3.8057e+09
        0.253   3.80768e+09
        0.254   3.80965e+09
        0.255   3.81161e+09
        0.256   3.81357e+09
