# Probe 0 (0.05 0.05 0.005)
#       Probe             0
#        Time
        0.001   0.000724436
        0.002   0.000724436
        0.003   0.000724434
        0.004    0.00072443
        0.005    0.00072442
        0.006   0.000724402
        0.007   0.000724372
        0.008   0.000724326
        0.009   0.000724257
         0.01   0.000724162
        0.011   0.000724031
        0.012    0.00072386
        0.013   0.000723638
        0.014   0.000723358
        0.015   0.000723011
        0.016   0.000722585
        0.017    0.00072207
        0.018   0.000721455
        0.019   0.000720728
         0.02   0.000719876
        0.021   0.000718885
        0.022   0.000717742
        0.023   0.000716432
        0.024    0.00071494
        0.025    0.00071325
        0.026   0.000711348
        0.027   0.000709215
        0.028   0.000706836
        0.029   0.000704194
         0.03   0.000701271
        0.031    0.00069805
        0.032   0.000694514
        0.033   0.000690645
        0.034   0.000686426
        0.035   0.000681841
        0.036   0.000676872
        0.037   0.000671503
        0.038   0.000665718
        0.039   0.000659503
         0.04   0.000652843
        0.041   0.000645725
        0.042   0.000638137
        0.043   0.000630069
        0.044   0.000621511
        0.045   0.000612455
        0.046   0.000602895
        0.047   0.000592828
        0.048   0.000582252
        0.049   0.000571167
         0.05   0.000559576
        0.051   0.000547485
        0.052   0.000534902
        0.053   0.000521839
        0.054   0.000508308
        0.055    0.00049433
        0.056   0.000479923
        0.057   0.000465112
        0.058   0.000449925
        0.059   0.000434393
         0.06    0.00041855
        0.061   0.000402434
        0.062   0.000386088
        0.063   0.000369555
        0.064   0.000352883
        0.065   0.000336124
        0.066    0.00031933
        0.067   0.000302559
        0.068   0.000285867
        0.069   0.000269313
         0.07    0.00025296
        0.071   0.000236867
        0.072   0.000221095
        0.073   0.000205705
        0.074   0.000190753
        0.075   0.000176295
        0.076   0.000162383
        0.077   0.000149065
        0.078   0.000136382
        0.079    0.00012437
         0.08   0.000113058
        0.081   0.000102466
        0.082   9.26069e-05
        0.083   8.34849e-05
        0.084   7.50952e-05
        0.085   6.74247e-05
        0.086   6.04526e-05
        0.087   5.41507e-05
        0.088   4.84851e-05
        0.089   4.34166e-05
         0.09   3.89029e-05
        0.091   3.48992e-05
        0.092   3.13602e-05
        0.093   2.82405e-05
        0.094   2.54965e-05
        0.095   2.30864e-05
        0.096   2.09716e-05
        0.097   1.91162e-05
        0.098   1.74879e-05
        0.099   1.60576e-05
          0.1   1.47996e-05
        0.101   1.36913e-05
        0.102   1.27128e-05
        0.103   1.18469e-05
        0.104   1.10787e-05
        0.105   1.03953e-05
        0.106   9.78558e-06
        0.107   9.24004e-06
        0.108   8.75048e-06
        0.109   8.30984e-06
         0.11   7.91205e-06
        0.111    7.5519e-06
        0.112   7.22489e-06
        0.113   6.92713e-06
        0.114   6.65526e-06
        0.115   6.40636e-06
        0.116    6.1779e-06
        0.117   5.96768e-06
        0.118   5.77377e-06
        0.119   5.59449e-06
         0.12   5.42836e-06
        0.121   5.27409e-06
        0.122   5.13053e-06
        0.123   4.99667e-06
        0.124   4.87162e-06
        0.125   4.75457e-06
        0.126   4.64483e-06
        0.127   4.54177e-06
        0.128   4.44481e-06
        0.129   4.35346e-06
         0.13   4.26726e-06
        0.131    4.1858e-06
        0.132   4.10871e-06
        0.133   4.03567e-06
        0.134   3.96637e-06
        0.135   3.90054e-06
        0.136   3.83793e-06
        0.137   3.77832e-06
        0.138    3.7215e-06
        0.139   3.66727e-06
         0.14   3.61548e-06
        0.141   3.56596e-06
        0.142   3.51857e-06
        0.143   3.47317e-06
        0.144   3.42965e-06
        0.145   3.38788e-06
        0.146   3.34777e-06
        0.147   3.30923e-06
        0.148   3.27215e-06
        0.149   3.23646e-06
         0.15   3.20208e-06
        0.151   3.16894e-06
        0.152   3.13697e-06
        0.153   3.10612e-06
        0.154   3.07632e-06
        0.155   3.04753e-06
        0.156   3.01968e-06
        0.157   2.99274e-06
        0.158   2.96666e-06
        0.159    2.9414e-06
         0.16   2.91692e-06
        0.161   2.89318e-06
        0.162   2.87016e-06
        0.163   2.84781e-06
        0.164   2.82611e-06
        0.165   2.80503e-06
        0.166   2.78455e-06
        0.167   2.76463e-06
        0.168   2.74526e-06
        0.169    2.7264e-06
         0.17   2.70805e-06
        0.171   2.69018e-06
        0.172   2.67277e-06
        0.173    2.6558e-06
        0.174   2.63926e-06
        0.175   2.62313e-06
        0.176   2.60739e-06
        0.177   2.59204e-06
        0.178   2.57704e-06
        0.179    2.5624e-06
         0.18    2.5481e-06
        0.181   2.53412e-06
        0.182   2.52047e-06
        0.183   2.50711e-06
        0.184   2.49405e-06
        0.185   2.48128e-06
        0.186   2.46878e-06
        0.187   2.45654e-06
        0.188   2.44456e-06
        0.189   2.43283e-06
         0.19   2.42135e-06
        0.191   2.41009e-06
        0.192   2.39906e-06
        0.193   2.38825e-06
        0.194   2.37765e-06
        0.195   2.36726e-06
        0.196   2.35706e-06
        0.197   2.34706e-06
        0.198   2.33725e-06
        0.199   2.32762e-06
          0.2   2.31817e-06
        0.201   2.30888e-06
        0.202   2.29977e-06
        0.203   2.29082e-06
        0.204   2.28202e-06
        0.205   2.27338e-06
        0.206   2.26489e-06
        0.207   2.25654e-06
        0.208   2.24834e-06
        0.209   2.24027e-06
         0.21   2.23234e-06
        0.211   2.22453e-06
        0.212   2.21686e-06
        0.213   2.20931e-06
        0.214   2.20188e-06
        0.215   2.19456e-06
        0.216   2.18736e-06
        0.217   2.18028e-06
        0.218    2.1733e-06
        0.219   2.16643e-06
         0.22   2.15966e-06
        0.221     2.153e-06
        0.222   2.14643e-06
        0.223   2.13996e-06
        0.224   2.13359e-06
        0.225   2.12731e-06
        0.226   2.12112e-06
        0.227   2.11501e-06
        0.228   2.10899e-06
        0.229   2.10306e-06
         0.23   2.09721e-06
        0.231   2.09144e-06
        0.232   2.08575e-06
        0.233   2.08014e-06
        0.234    2.0746e-06
        0.235   2.06913e-06
        0.236   2.06374e-06
        0.237   2.05842e-06
        0.238   2.05317e-06
        0.239   2.04799e-06
         0.24   2.04287e-06
        0.241   2.03782e-06
        0.242   2.03283e-06
        0.243    2.0279e-06
        0.244   2.02304e-06
        0.245   2.01823e-06
        0.246   2.01349e-06
        0.247    2.0088e-06
        0.248   2.00417e-06
        0.249   1.99959e-06
         0.25   1.99507e-06
        0.251   1.99061e-06
        0.252   1.98619e-06
        0.253   1.98183e-06
        0.254   1.97752e-06
        0.255   1.97325e-06
        0.256   1.96904e-06
