# Probe 0 (0.05 0.05 0.005)
#       Probe             0
#        Time
        0.001   3.78935e+10
        0.002   3.78934e+10
        0.003   3.78934e+10
        0.004   3.78934e+10
        0.005   3.78933e+10
        0.006   3.78932e+10
        0.007   3.78929e+10
        0.008   3.78926e+10
        0.009    3.7892e+10
         0.01   3.78912e+10
        0.011   3.78901e+10
        0.012   3.78886e+10
        0.013   3.78867e+10
        0.014   3.78843e+10
        0.015   3.78813e+10
        0.016   3.78777e+10
        0.017   3.78732e+10
        0.018   3.78679e+10
        0.019   3.78615e+10
         0.02   3.78541e+10
        0.021   3.78454e+10
        0.022   3.78353e+10
        0.023   3.78238e+10
        0.024   3.78106e+10
        0.025   3.77956e+10
        0.026   3.77787e+10
        0.027   3.77596e+10
        0.028   3.77383e+10
        0.029   3.77145e+10
         0.03   3.76881e+10
        0.031   3.76589e+10
        0.032   3.76266e+10
        0.033   3.75911e+10
        0.034   3.75521e+10
        0.035   3.75095e+10
        0.036   3.74629e+10
        0.037   3.74123e+10
        0.038   3.73572e+10
        0.039   3.72975e+10
         0.04    3.7233e+10
        0.041   3.71633e+10
        0.042   3.70881e+10
        0.043   3.70072e+10
        0.044   3.69203e+10
        0.045    3.6827e+10
        0.046   3.67271e+10
        0.047   3.66202e+10
        0.048   3.65059e+10
        0.049   3.63839e+10
         0.05   3.62538e+10
        0.051   3.61153e+10
        0.052   3.59678e+10
        0.053    3.5811e+10
        0.054   3.56444e+10
        0.055   3.54676e+10
        0.056     3.528e+10
        0.057   3.50812e+10
        0.058   3.48706e+10
        0.059   3.46475e+10
         0.06   3.44115e+10
        0.061   3.41619e+10
        0.062    3.3898e+10
        0.063   3.36191e+10
        0.064   3.33246e+10
        0.065   3.30135e+10
        0.066   3.26853e+10
        0.067   3.23389e+10
        0.068   3.19737e+10
        0.069   3.15888e+10
         0.07   3.11832e+10
        0.071   3.07563e+10
        0.072   3.03071e+10
        0.073   2.98349e+10
        0.074   2.93391e+10
        0.075    2.8819e+10
        0.076   2.82742e+10
        0.077   2.77046e+10
        0.078     2.711e+10
        0.079   2.64907e+10
         0.08   2.58476e+10
        0.081   2.51814e+10
        0.082   2.44939e+10
        0.083   2.37868e+10
        0.084   2.30628e+10
        0.085   2.23247e+10
        0.086    2.1576e+10
        0.087   2.08205e+10
        0.088   2.00624e+10
        0.089    1.9306e+10
         0.09   1.85558e+10
        0.091   1.78159e+10
        0.092   1.70907e+10
        0.093   1.63837e+10
        0.094   1.56982e+10
        0.095   1.50369e+10
        0.096   1.44021e+10
        0.097   1.37951e+10
        0.098   1.32171e+10
        0.099   1.26683e+10
          0.1   1.21489e+10
        0.101   1.16584e+10
        0.102    1.1196e+10
        0.103   1.07609e+10
        0.104   1.03518e+10
        0.105   9.96755e+09
        0.106   9.60673e+09
        0.107   9.26802e+09
        0.108   8.95004e+09
        0.109   8.65146e+09
         0.11   8.37098e+09
        0.111   8.10736e+09
        0.112   7.85942e+09
        0.113   7.62607e+09
        0.114   7.40625e+09
        0.115     7.199e+09
        0.116   7.00342e+09
        0.117   6.81869e+09
        0.118   6.64401e+09
        0.119   6.47869e+09
         0.12   6.32206e+09
        0.121   6.17351e+09
        0.122    6.0325e+09
        0.123    5.8985e+09
        0.124   5.77105e+09
        0.125   5.64969e+09
        0.126   5.53404e+09
        0.127   5.42373e+09
        0.128    5.3184e+09
        0.129   5.21774e+09
         0.13   5.12147e+09
        0.131   5.02931e+09
        0.132   4.94102e+09
        0.133   4.85636e+09
        0.134   4.77512e+09
        0.135   4.69711e+09
        0.136   4.62213e+09
        0.137   4.55002e+09
        0.138   4.48061e+09
        0.139   4.41377e+09
         0.14   4.34936e+09
        0.141   4.28723e+09
        0.142   4.22729e+09
        0.143    4.1694e+09
        0.144   4.11348e+09
        0.145   4.05942e+09
        0.146   4.00713e+09
        0.147   3.95652e+09
        0.148   3.90751e+09
        0.149   3.86004e+09
         0.15   3.81402e+09
        0.151   3.76939e+09
        0.152   3.72609e+09
        0.153   3.68406e+09
        0.154   3.64324e+09
        0.155   3.60358e+09
        0.156   3.56504e+09
        0.157   3.52755e+09
        0.158   3.49109e+09
        0.159    3.4556e+09
         0.16   3.42106e+09
        0.161   3.38741e+09
        0.162   3.35463e+09
        0.163   3.32267e+09
        0.164   3.29152e+09
        0.165   3.26114e+09
        0.166    3.2315e+09
        0.167   3.20257e+09
        0.168   3.17432e+09
        0.169   3.14674e+09
         0.17   3.11979e+09
        0.171   3.09346e+09
        0.172   3.06772e+09
        0.173   3.04256e+09
        0.174   3.01795e+09
        0.175   2.99387e+09
        0.176   2.97032e+09
        0.177   2.94726e+09
        0.178   2.92468e+09
        0.179   2.90257e+09
         0.18   2.88092e+09
        0.181    2.8597e+09
        0.182   2.83891e+09
        0.183   2.81853e+09
        0.184   2.79855e+09
        0.185   2.77896e+09
        0.186   2.75974e+09
        0.187   2.74089e+09
        0.188   2.72238e+09
        0.189   2.70423e+09
         0.19    2.6864e+09
        0.191    2.6689e+09
        0.192   2.65172e+09
        0.193   2.63484e+09
        0.194   2.61825e+09
        0.195   2.60196e+09
        0.196   2.58595e+09
        0.197   2.57021e+09
        0.198   2.55474e+09
        0.199   2.53953e+09
          0.2   2.52457e+09
        0.201   2.50985e+09
        0.202   2.49538e+09
        0.203   2.48114e+09
        0.204   2.46713e+09
        0.205   2.45333e+09
        0.206   2.43976e+09
        0.207    2.4264e+09
        0.208   2.41324e+09
        0.209   2.40028e+09
         0.21   2.38752e+09
        0.211   2.37495e+09
        0.212   2.36257e+09
        0.213   2.35037e+09
        0.214   2.33835e+09
        0.215   2.32651e+09
        0.216   2.31483e+09
        0.217   2.30332e+09
        0.218   2.29197e+09
        0.219   2.28078e+09
         0.22   2.26975e+09
        0.221   2.25887e+09
        0.222   2.24814e+09
        0.223   2.23755e+09
        0.224   2.22711e+09
        0.225   2.21681e+09
        0.226   2.20664e+09
        0.227   2.19661e+09
        0.228    2.1867e+09
        0.229   2.17693e+09
         0.23   2.16728e+09
        0.231   2.15775e+09
        0.232   2.14835e+09
        0.233   2.13906e+09
        0.234   2.12989e+09
        0.235   2.12083e+09
        0.236   2.11188e+09
        0.237   2.10305e+09
        0.238   2.09432e+09
        0.239   2.08569e+09
         0.24   2.07717e+09
        0.241   2.06874e+09
        0.242   2.06042e+09
        0.243    2.0522e+09
        0.244   2.04406e+09
        0.245   2.03603e+09
        0.246   2.02808e+09
        0.247   2.02023e+09
        0.248   2.01246e+09
        0.249   2.00478e+09
         0.25   1.99719e+09
        0.251   1.98968e+09
        0.252   1.98225e+09
        0.253   1.97491e+09
        0.254   1.96764e+09
        0.255   1.96045e+09
        0.256   1.95334e+09
