0.000000e+00 	57523159877.176178 
1.446559e-14 	57523159877.176178 
2.893117e-14 	57523159877.176178 
4.339676e-14 	57523159877.176178 
5.786235e-14 	57523159877.176178 
1.301903e-13 	57523159877.176178 
2.025182e-13 	57523159877.176178 
2.748461e-13 	57523159877.176178 
3.471741e-13 	57523159877.176178 
7.088137e-13 	57523159877.176178 
1.070453e-12 	57523159877.176178 
1.432093e-12 	57523159877.176178 
1.793733e-12 	57523159877.176178 
3.601931e-12 	57523159877.176178 
5.410129e-12 	57523159877.176178 
7.218328e-12 	57523159877.176178 
9.026526e-12 	57523159877.176178 
1.806752e-11 	57523159877.176178 
2.710851e-11 	57523159877.176178 
3.614950e-11 	57523159877.176178 
4.519049e-11 	57523159877.176178 
9.039545e-11 	57523159877.176178 
1.356004e-10 	57523159877.176178 
1.808054e-10 	57523159877.176178 
2.260103e-10 	57523159877.176178 
4.520351e-10 	57523159877.176178 
6.780599e-10 	57523159877.176178 
9.040847e-10 	57523159877.176178 
1.130109e-09 	57523159877.176178 
2.260233e-09 	57523159877.176178 
3.390357e-09 	57523159877.176178 
4.520481e-09 	57523159877.176178 
5.650605e-09 	57523159877.176178 
1.130122e-08 	57523159877.176178 
1.695184e-08 	57523159877.176178 
2.260246e-08 	57523159877.176178 
2.825308e-08 	57523159877.176178 
5.650618e-08 	57523159877.176178 
8.475928e-08 	57523159877.176178 
1.130124e-07 	57523159877.176178 
1.412655e-07 	57523159877.176178 
2.825310e-07 	57523159877.176178 
4.237965e-07 	57523159877.176178 
5.650619e-07 	57523159877.176178 
7.063274e-07 	57523159877.176155 
1.412655e-06 	57523159877.175972 
2.118982e-06 	57523159877.175163 
2.825310e-06 	57523159877.172974 
3.531637e-06 	57523159877.168365 
7.063275e-06 	57523159877.051140 
1.059491e-05 	57523159876.543114 
1.412655e-05 	57523159875.175385 
1.765819e-05 	57523159872.291443 
3.531637e-05 	57523159799.020554 
5.297456e-05 	57523159481.513214 
7.063275e-05 	57523158626.685837 
8.829093e-05 	57523156824.221390 
1.765819e-04 	57523111038.033310 
2.648728e-04 	57522912583.438278 
3.531637e-04 	57522378293.161713 
4.414547e-04 	57521251781.185646 
6.093362e-04 	57516235043.441246 
7.772177e-04 	57504824064.657845 
9.450992e-04 	57483079179.894775 
1.112981e-03 	57446116016.736557 
1.308115e-03 	57376280168.280289 
1.503248e-03 	57267192245.656548 
1.698382e-03 	57106674775.186005 
1.893516e-03 	56881082003.128044 
2.032427e-03 	56672574419.394806 
2.171338e-03 	56417661122.603378 
2.310249e-03 	56110342804.838203 
2.449160e-03 	55744617355.276619 
2.555611e-03 	55421030177.849121 
2.662063e-03 	55056751657.857445 
2.768515e-03 	54649031356.006340 
2.874967e-03 	54195295918.478897 
2.981419e-03 	53693118754.883514 
3.087871e-03 	53140056228.386330 
3.194323e-03 	52533888435.342987 
3.300775e-03 	51872795391.772110 
3.413598e-03 	51110545295.128616 
3.526422e-03 	50283385478.947624 
3.639246e-03 	49390285480.846909 
3.752070e-03 	48431051441.355133 
3.851491e-03 	47531362326.185547 
3.950912e-03 	46581408368.176361 
4.050332e-03 	45582473111.283905 
4.149753e-03 	44536339422.883850 
4.229869e-03 	43660570310.014000 
4.309984e-03 	42757193889.574539 
4.390099e-03 	41828023598.415504 
4.470215e-03 	40875027875.158653 
4.540393e-03 	40022373483.980827 
4.610572e-03 	39154838548.601662 
4.680751e-03 	38274262564.914612 
4.750930e-03 	37382543816.096878 
4.820454e-03 	36490113185.418488 
4.889978e-03 	35590831754.331345 
4.959502e-03 	34686890501.198868 
5.029027e-03 	33780480590.109203 
5.092247e-03 	32955983339.476669 
5.155467e-03 	32133021655.617481 
5.218687e-03 	31313310191.404980 
5.281908e-03 	30498533252.773823 
5.336994e-03 	29793888240.615936 
5.392081e-03 	29095311744.117245 
5.447168e-03 	28403827840.645615 
5.502255e-03 	27720428155.850636 
5.557085e-03 	27049180359.479435 
5.611915e-03 	26387733552.158012 
5.666745e-03 	25736885110.492794 
5.721575e-03 	25097386743.336807 
5.778695e-03 	24443996982.671242 
5.835815e-03 	23804331541.502151 
5.892934e-03 	23178969134.466667 
5.950054e-03 	22568428982.073750 
6.013396e-03 	21909237558.652344 
6.076739e-03 	21269231661.130379 
6.140081e-03 	20648711867.180634 
6.203424e-03 	20047900865.485813 
6.282573e-03 	19325029957.198681 
6.361723e-03 	18633004376.573967 
6.440873e-03 	17971494755.758087 
6.520022e-03 	17340068831.594578 
6.603454e-03 	16706377557.517469 
6.686885e-03 	16104461598.213545 
6.770317e-03 	15533257044.532570 
6.853748e-03 	14991593468.590784 
6.927492e-03 	14536419154.822170 
7.001236e-03 	14102469643.752523 
7.074979e-03 	13688865436.095440 
7.148723e-03 	13294672954.341597 
7.228979e-03 	12886629861.568567 
7.309234e-03 	12499384361.936352 
7.389489e-03 	12131857793.431707 
7.469745e-03 	11782919176.231504 
7.561530e-03 	11405209371.520454 
7.653315e-03 	11048986282.020845 
7.745101e-03 	10712901926.496302 
7.836886e-03 	10395539473.801691 
7.959269e-03 	9999104964.025532 
8.081652e-03 	9631078469.098125 
8.204035e-03 	9289172966.573605 
8.326417e-03 	8970817269.864977 
8.450634e-03 	8669347176.486542 
8.574852e-03 	8388116445.271646 
8.699069e-03 	8125480921.907863 
8.823286e-03 	7879683739.505848 
8.940611e-03 	7661552834.349022 
9.057936e-03 	7456094002.968994 
9.175261e-03 	7262355551.365893 
9.292586e-03 	7079377142.188681 
9.415060e-03 	6898900690.385540 
9.537533e-03 	6728427483.371970 
9.660007e-03 	6567217341.236147 
9.782480e-03 	6414536356.126660 
9.913437e-03 	6259958238.456117 
1.004439e-02 	6113720990.300903 
1.017535e-02 	5975209752.768747 
1.030631e-02 	5843821390.804166 
1.044825e-02 	5708824384.464883 
1.059018e-02 	5580989987.320837 
1.073212e-02 	5459789616.199454 
1.087406e-02 	5344708688.963619 
1.102920e-02 	5225367149.514221 
1.118435e-02 	5112284878.440258 
1.133949e-02 	5004998533.373334 
1.149464e-02 	4903059677.903559 
1.166526e-02 	4796642943.068277 
1.183588e-02 	4695761484.129282 
1.200649e-02 	4600003925.798110 
1.217711e-02 	4508974007.764971 
1.236563e-02 	4413461105.531264 
1.255415e-02 	4322885835.410302 
1.274266e-02 	4236879648.670434 
1.293118e-02 	4155088938.717112 
1.314026e-02 	4068919430.283410 
1.334934e-02 	3987183794.866654 
1.355841e-02 	3909549618.507915 
1.376749e-02 	3835699039.104672 
1.400011e-02 	3757631214.227154 
1.423272e-02 	3683565971.176298 
1.446534e-02 	3613201913.318339 
1.469795e-02 	3546251681.437856 
1.495745e-02 	3475274824.143777 
1.521695e-02 	3407926816.831557 
1.547645e-02 	3343933237.003874 
1.573595e-02 	3283033116.874217 
1.602611e-02 	3218309885.070134 
1.631627e-02 	3156888515.815181 
1.660644e-02 	3098518285.118491 
1.689660e-02 	3042961307.473265 
1.722173e-02 	2983788099.303837 
1.754685e-02 	2927628406.285560 
1.787197e-02 	2874252496.043158 
1.819710e-02 	2823442847.072203 
1.856206e-02 	2769221525.194685 
1.892702e-02 	2717757776.508187 
1.929199e-02 	2668840587.354375 
1.965695e-02 	2622270530.226390 
1.974271e-02 	2611647592.375489 
1.982848e-02 	2601142512.639511 
1.991424e-02 	2590753230.601378 
2.000000e-02 	2580477732.321155 
