# Probe 0 (0.05 0.05 0.005)
#       Probe             0
#        Time
        0.001    0.00381411
        0.002    0.00381411
        0.003     0.0038141
        0.004    0.00381408
        0.005    0.00381403
        0.006    0.00381393
        0.007    0.00381377
        0.008    0.00381353
        0.009    0.00381317
         0.01    0.00381267
        0.011    0.00381198
        0.012    0.00381108
        0.013    0.00380991
        0.014    0.00380844
        0.015     0.0038066
        0.016    0.00380436
        0.017    0.00380165
        0.018    0.00379842
        0.019    0.00379459
         0.02     0.0037901
        0.021    0.00378489
        0.022    0.00377887
        0.023    0.00377197
        0.024    0.00376411
        0.025    0.00375522
        0.026     0.0037452
        0.027    0.00373397
        0.028    0.00372145
        0.029    0.00370753
         0.03    0.00369215
        0.031    0.00367519
        0.032    0.00365657
        0.033     0.0036362
        0.034    0.00361399
        0.035    0.00358985
        0.036    0.00356369
        0.037    0.00353542
        0.038    0.00350496
        0.039    0.00347224
         0.04    0.00343718
        0.041     0.0033997
        0.042    0.00335975
        0.043    0.00331727
        0.044    0.00327221
        0.045    0.00322454
        0.046    0.00317421
        0.047     0.0031212
        0.048    0.00306552
        0.049    0.00300716
         0.05    0.00294613
        0.051    0.00288248
        0.052    0.00281623
        0.053    0.00274745
        0.054    0.00267621
        0.055    0.00260261
        0.056    0.00252676
        0.057    0.00244878
        0.058    0.00236883
        0.059    0.00228705
         0.06    0.00220364
        0.061    0.00211879
        0.062    0.00203273
        0.063    0.00194568
        0.064    0.00185791
        0.065    0.00176967
        0.066    0.00168125
        0.067    0.00159295
        0.068    0.00150507
        0.069    0.00141792
         0.07    0.00133182
        0.071    0.00124709
        0.072    0.00116405
        0.073    0.00108302
        0.074     0.0010043
        0.075   0.000928181
        0.076   0.000854937
        0.077   0.000784817
        0.078   0.000718042
        0.079     0.0006548
         0.08   0.000595241
        0.081   0.000539475
        0.082   0.000487568
        0.083   0.000439541
        0.084    0.00039537
        0.085   0.000354985
        0.086   0.000318277
        0.087   0.000285099
        0.088   0.000255269
        0.089   0.000228584
         0.09    0.00020482
        0.091   0.000183741
        0.092   0.000165108
        0.093   0.000148683
        0.094   0.000134236
        0.095   0.000121547
        0.096   0.000110412
        0.097   0.000100644
        0.098   9.20709e-05
        0.099   8.45406e-05
          0.1   7.79175e-05
        0.101   7.20823e-05
        0.102   6.69306e-05
        0.103   6.23717e-05
        0.104    5.8327e-05
        0.105   5.47289e-05
        0.106   5.15188e-05
        0.107   4.86466e-05
        0.108   4.60691e-05
        0.109   4.37491e-05
         0.11   4.16548e-05
        0.111   3.97586e-05
        0.112   3.80369e-05
        0.113   3.64692e-05
        0.114   3.50378e-05
        0.115   3.37274e-05
        0.116   3.25246e-05
        0.117   3.14178e-05
        0.118   3.03968e-05
        0.119    2.9453e-05
         0.12   2.85783e-05
        0.121   2.77661e-05
        0.122   2.70102e-05
        0.123   2.63055e-05
        0.124   2.56471e-05
        0.125   2.50309e-05
        0.126   2.44531e-05
        0.127   2.39105e-05
        0.128      2.34e-05
        0.129    2.2919e-05
         0.13   2.24652e-05
        0.131   2.20363e-05
        0.132   2.16305e-05
        0.133   2.12459e-05
        0.134    2.0881e-05
        0.135   2.05344e-05
        0.136   2.02048e-05
        0.137   1.98909e-05
        0.138   1.95918e-05
        0.139   1.93063e-05
         0.14   1.90336e-05
        0.141   1.87729e-05
        0.142   1.85234e-05
        0.143   1.82844e-05
        0.144   1.80552e-05
        0.145   1.78353e-05
        0.146   1.76241e-05
        0.147   1.74212e-05
        0.148    1.7226e-05
        0.149   1.70381e-05
         0.15   1.68571e-05
        0.151   1.66826e-05
        0.152   1.65143e-05
        0.153   1.63519e-05
        0.154    1.6195e-05
        0.155   1.60434e-05
        0.156   1.58968e-05
        0.157   1.57549e-05
        0.158   1.56176e-05
        0.159   1.54846e-05
         0.16   1.53557e-05
        0.161   1.52307e-05
        0.162   1.51095e-05
        0.163   1.49919e-05
        0.164   1.48776e-05
        0.165   1.47666e-05
        0.166   1.46588e-05
        0.167   1.45539e-05
        0.168   1.44519e-05
        0.169   1.43527e-05
         0.17   1.42561e-05
        0.171    1.4162e-05
        0.172   1.40703e-05
        0.173    1.3981e-05
        0.174   1.38939e-05
        0.175   1.38089e-05
        0.176   1.37261e-05
        0.177   1.36452e-05
        0.178   1.35663e-05
        0.179   1.34892e-05
         0.18   1.34139e-05
        0.181   1.33403e-05
        0.182   1.32684e-05
        0.183   1.31981e-05
        0.184   1.31294e-05
        0.185   1.30621e-05
        0.186   1.29963e-05
        0.187   1.29319e-05
        0.188   1.28688e-05
        0.189    1.2807e-05
         0.19   1.27466e-05
        0.191   1.26873e-05
        0.192   1.26292e-05
        0.193   1.25723e-05
        0.194   1.25165e-05
        0.195   1.24618e-05
        0.196   1.24081e-05
        0.197   1.23555e-05
        0.198   1.23038e-05
        0.199   1.22531e-05
          0.2   1.22033e-05
        0.201   1.21545e-05
        0.202   1.21065e-05
        0.203   1.20593e-05
        0.204    1.2013e-05
        0.205   1.19675e-05
        0.206   1.19228e-05
        0.207   1.18789e-05
        0.208   1.18357e-05
        0.209   1.17932e-05
         0.21   1.17514e-05
        0.211   1.17104e-05
        0.212   1.16699e-05
        0.213   1.16302e-05
        0.214   1.15911e-05
        0.215   1.15526e-05
        0.216   1.15147e-05
        0.217   1.14773e-05
        0.218   1.14406e-05
        0.219   1.14044e-05
         0.22   1.13688e-05
        0.221   1.13337e-05
        0.222   1.12992e-05
        0.223   1.12651e-05
        0.224   1.12315e-05
        0.225   1.11985e-05
        0.226   1.11659e-05
        0.227   1.11337e-05
        0.228    1.1102e-05
        0.229   1.10708e-05
         0.23     1.104e-05
        0.231   1.10096e-05
        0.232   1.09797e-05
        0.233   1.09501e-05
        0.234    1.0921e-05
        0.235   1.08922e-05
        0.236   1.08638e-05
        0.237   1.08358e-05
        0.238   1.08081e-05
        0.239   1.07808e-05
         0.24   1.07539e-05
        0.241   1.07273e-05
        0.242    1.0701e-05
        0.243   1.06751e-05
        0.244   1.06495e-05
        0.245   1.06242e-05
        0.246   1.05992e-05
        0.247   1.05745e-05
        0.248   1.05501e-05
        0.249   1.05261e-05
         0.25   1.05023e-05
        0.251   1.04787e-05
        0.252   1.04555e-05
        0.253   1.04325e-05
        0.254   1.04098e-05
        0.255   1.03874e-05
        0.256   1.03652e-05
