# Probe 0 (0.05 0.05 0.005)
#       Probe             0
#        Time
        0.001       226.622
        0.002       226.622
        0.003       226.622
        0.004       226.621
        0.005        226.62
        0.006       226.617
        0.007       226.612
        0.008       226.605
        0.009       226.594
         0.01       226.578
        0.011       226.557
        0.012       226.529
        0.013       226.492
        0.014       226.445
        0.015       226.387
        0.016       226.316
        0.017        226.23
        0.018       226.126
        0.019       226.003
         0.02       225.859
        0.021       225.691
        0.022       225.497
        0.023       225.274
        0.024       225.019
        0.025       224.731
        0.026       224.405
        0.027       224.038
        0.028       223.629
        0.029       223.173
         0.03       222.668
        0.031       222.109
        0.032       221.494
        0.033        220.82
        0.034       220.081
        0.035       219.276
        0.036         218.4
        0.037        217.45
        0.038       216.421
        0.039       215.311
         0.04       214.116
        0.041       212.831
        0.042       211.454
        0.043       209.981
        0.044       208.407
        0.045       206.731
        0.046       204.947
        0.047       203.053
        0.048       201.046
        0.049       198.922
         0.05       196.679
        0.051       194.314
        0.052       191.824
        0.053       189.207
        0.054        186.46
        0.055       183.583
        0.056       180.572
        0.057       177.428
        0.058       174.148
        0.059       170.733
         0.06       167.182
        0.061       163.496
        0.062       159.675
        0.063       155.722
        0.064       151.637
        0.065       147.424
        0.066       143.088
        0.067       138.631
        0.068       134.061
        0.069       129.384
         0.07       124.609
        0.071       119.744
        0.072       114.801
        0.073       109.794
        0.074       104.736
        0.075       99.6433
        0.076        94.535
        0.077       89.4308
        0.078       84.3522
        0.079       79.3222
         0.08        74.365
        0.081       69.5053
        0.082       64.7681
        0.083       60.1776
        0.084       55.7571
        0.085       51.5275
        0.086       47.5073
        0.087       43.7114
        0.088       40.1509
        0.089       36.8328
         0.09       33.7598
        0.091       30.9303
        0.092       28.3392
        0.093       25.9777
        0.094       23.8347
        0.095       21.8969
        0.096       20.1498
        0.097       18.5782
        0.098       17.1666
        0.099          15.9
          0.1        14.764
        0.101       13.7449
        0.102       12.8302
        0.103       12.0085
        0.104       11.2692
        0.105       10.6031
        0.106       10.0018
        0.107       9.45799
        0.108        8.9651
        0.109        8.5174
         0.11       8.10981
        0.111       7.73789
        0.112       7.39774
        0.113       7.08592
        0.114       6.79944
        0.115       6.53563
        0.116       6.29217
        0.117         6.067
        0.118       5.85832
        0.119       5.66453
         0.12        5.4842
        0.121       5.31607
        0.122       5.15904
        0.123       5.01211
        0.124       4.87439
        0.125       4.74509
        0.126       4.62349
        0.127       4.50897
        0.128       4.40095
        0.129       4.29891
         0.13        4.2024
        0.131       4.11098
        0.132       4.02428
        0.133       3.94195
        0.134       3.86369
        0.135        3.7892
        0.136       3.71822
        0.137       3.65052
        0.138       3.58587
        0.139       3.52409
         0.14       3.46498
        0.141       3.40837
        0.142       3.35412
        0.143       3.30208
        0.144       3.25212
        0.145       3.20412
        0.146       3.15796
        0.147       3.11354
        0.148       3.07077
        0.149       3.02955
         0.15        2.9898
        0.151       2.95144
        0.152        2.9144
        0.153       2.87862
        0.154       2.84402
        0.155       2.81056
        0.156       2.77817
        0.157        2.7468
        0.158       2.71641
        0.159       2.68694
         0.16       2.65837
        0.161       2.63064
        0.162       2.60372
        0.163       2.57757
        0.164       2.55217
        0.165       2.52747
        0.166       2.50344
        0.167       2.48007
        0.168       2.45732
        0.169       2.43517
         0.17        2.4136
        0.171       2.39257
        0.172       2.37207
        0.173       2.35209
        0.174       2.33259
        0.175       2.31356
        0.176       2.29499
        0.177       2.27686
        0.178       2.25915
        0.179       2.24184
         0.18       2.22493
        0.181       2.20839
        0.182       2.19222
        0.183       2.17641
        0.184       2.16093
        0.185       2.14579
        0.186       2.13096
        0.187       2.11644
        0.188       2.10222
        0.189       2.08829
         0.19       2.07464
        0.191       2.06126
        0.192       2.04814
        0.193       2.03528
        0.194       2.02267
        0.195       2.01029
        0.196       1.99815
        0.197       1.98623
        0.198       1.97454
        0.199       1.96305
          0.2       1.95177
        0.201        1.9407
        0.202       1.92982
        0.203       1.91913
        0.204       1.90862
        0.205       1.89829
        0.206       1.88814
        0.207       1.87816
        0.208       1.86835
        0.209       1.85869
         0.21        1.8492
        0.211       1.83985
        0.212       1.83066
        0.213       1.82161
        0.214       1.81271
        0.215       1.80394
        0.216       1.79531
        0.217       1.78681
        0.218       1.77844
        0.219       1.77019
         0.22       1.76207
        0.221       1.75407
        0.222       1.74618
        0.223       1.73841
        0.224       1.73075
        0.225        1.7232
        0.226       1.71575
        0.227       1.70841
        0.228       1.70117
        0.229       1.69403
         0.23       1.68699
        0.231       1.68005
        0.232       1.67319
        0.233       1.66643
        0.234       1.65976
        0.235       1.65318
        0.236       1.64668
        0.237       1.64026
        0.238       1.63393
        0.239       1.62768
         0.24       1.62151
        0.241       1.61541
        0.242       1.60939
        0.243       1.60345
        0.244       1.59757
        0.245       1.59177
        0.246       1.58604
        0.247       1.58038
        0.248       1.57478
        0.249       1.56926
         0.25       1.56379
        0.251       1.55839
        0.252       1.55305
        0.253       1.54778
        0.254       1.54256
        0.255        1.5374
        0.256        1.5323
