# Probe 0 (0.05 0.05 0.005)
#       Probe             0
#        Time
        0.001    0.00861594
        0.002    0.00861593
        0.003    0.00861593
        0.004     0.0086159
        0.005    0.00861585
        0.006    0.00861574
        0.007    0.00861556
        0.008    0.00861528
        0.009    0.00861486
         0.01    0.00861426
        0.011    0.00861345
        0.012    0.00861237
        0.013    0.00861098
        0.014    0.00860921
        0.015      0.008607
        0.016    0.00860429
        0.017      0.008601
        0.018    0.00859707
        0.019     0.0085924
         0.02    0.00858692
        0.021    0.00858053
        0.022    0.00857315
        0.023    0.00856467
        0.024    0.00855499
        0.025    0.00854401
        0.026    0.00853162
        0.027     0.0085177
        0.028    0.00850214
        0.029    0.00848481
         0.03    0.00846559
        0.031    0.00844436
        0.032    0.00842098
        0.033    0.00839532
        0.034    0.00836725
        0.035    0.00833663
        0.036    0.00830333
        0.037     0.0082672
        0.038     0.0082281
        0.039     0.0081859
         0.04    0.00814045
        0.041    0.00809162
        0.042    0.00803926
        0.043    0.00798324
        0.044    0.00792342
        0.045    0.00785967
        0.046    0.00779186
        0.047    0.00771986
        0.048    0.00764355
        0.049    0.00756281
         0.05    0.00747753
        0.051    0.00738761
        0.052    0.00729294
        0.053    0.00719344
        0.054    0.00708902
        0.055    0.00697962
        0.056    0.00686517
        0.057    0.00674562
        0.058    0.00662093
        0.059     0.0064911
         0.06     0.0063561
        0.061    0.00621595
        0.062    0.00607069
        0.063    0.00592037
        0.064    0.00576508
        0.065    0.00560492
        0.066    0.00544004
        0.067    0.00527061
        0.068    0.00509686
        0.069    0.00491905
         0.07    0.00473748
        0.071    0.00455253
        0.072    0.00436462
        0.073    0.00417424
        0.074    0.00398193
        0.075    0.00378833
        0.076    0.00359412
        0.077    0.00340006
        0.078    0.00320698
        0.079    0.00301575
         0.08    0.00282728
        0.081    0.00264252
        0.082    0.00246241
        0.083    0.00228789
        0.084    0.00211982
        0.085    0.00195902
        0.086    0.00180617
        0.087    0.00166186
        0.088    0.00152649
        0.089    0.00140034
         0.09    0.00128351
        0.091    0.00117594
        0.092    0.00107742
        0.093   0.000987644
        0.094    0.00090617
        0.095   0.000832498
        0.096   0.000766075
        0.097   0.000706322
        0.098   0.000652656
        0.099   0.000604501
          0.1    0.00056131
        0.101   0.000522566
        0.102   0.000487791
        0.103   0.000456548
        0.104   0.000428442
        0.105   0.000403117
        0.106   0.000380258
        0.107   0.000359582
        0.108   0.000340844
        0.109   0.000323822
         0.11   0.000308326
        0.111   0.000294186
        0.112   0.000281254
        0.113   0.000269399
        0.114   0.000258507
        0.115   0.000248477
        0.116   0.000239221
        0.117   0.000230661
        0.118   0.000222727
        0.119   0.000215359
         0.12   0.000208503
        0.121   0.000202111
        0.122   0.000196141
        0.123   0.000190555
        0.124   0.000185319
        0.125   0.000180403
        0.126    0.00017578
        0.127   0.000171426
        0.128   0.000167319
        0.129    0.00016344
         0.13   0.000159771
        0.131   0.000156295
        0.132   0.000152999
        0.133   0.000149869
        0.134   0.000146893
        0.135   0.000144061
        0.136   0.000141363
        0.137   0.000138789
        0.138   0.000136331
        0.139   0.000133982
         0.14   0.000131735
        0.141   0.000129583
        0.142    0.00012752
        0.143   0.000125542
        0.144   0.000123642
        0.145   0.000121817
        0.146   0.000120062
        0.147   0.000118374
        0.148   0.000116747
        0.149    0.00011518
         0.15   0.000113669
        0.151   0.000112211
        0.152   0.000110802
        0.153   0.000109442
        0.154   0.000108127
        0.155   0.000106854
        0.156   0.000105623
        0.157    0.00010443
        0.158   0.000103275
        0.159   0.000102155
         0.16   0.000101068
        0.161   0.000100014
        0.162   9.89906e-05
        0.163   9.79965e-05
        0.164   9.70306e-05
        0.165   9.60915e-05
        0.166   9.51783e-05
        0.167   9.42897e-05
        0.168   9.34248e-05
        0.169   9.25826e-05
         0.17   9.17623e-05
        0.171   9.09629e-05
        0.172   9.01837e-05
        0.173   8.94238e-05
        0.174   8.86825e-05
        0.175   8.79592e-05
        0.176   8.72531e-05
        0.177   8.65637e-05
        0.178   8.58903e-05
        0.179   8.52324e-05
         0.18   8.45893e-05
        0.181   8.39607e-05
        0.182    8.3346e-05
        0.183   8.27446e-05
        0.184   8.21563e-05
        0.185   8.15805e-05
        0.186   8.10168e-05
        0.187   8.04648e-05
        0.188   7.99242e-05
        0.189   7.93946e-05
         0.19   7.88756e-05
        0.191   7.83669e-05
        0.192   7.78682e-05
        0.193   7.73792e-05
        0.194   7.68996e-05
        0.195   7.64291e-05
        0.196   7.59675e-05
        0.197   7.55144e-05
        0.198   7.50697e-05
        0.199   7.46331e-05
          0.2   7.42043e-05
        0.201   7.37832e-05
        0.202   7.33695e-05
        0.203   7.29631e-05
        0.204   7.25636e-05
        0.205    7.2171e-05
        0.206   7.17851e-05
        0.207   7.14056e-05
        0.208   7.10325e-05
        0.209   7.06655e-05
         0.21   7.03044e-05
        0.211   6.99493e-05
        0.212   6.95997e-05
        0.213   6.92558e-05
        0.214   6.89172e-05
        0.215   6.85839e-05
        0.216   6.82557e-05
        0.217   6.79325e-05
        0.218   6.76143e-05
        0.219   6.73008e-05
         0.22    6.6992e-05
        0.221   6.66877e-05
        0.222   6.63879e-05
        0.223   6.60924e-05
        0.224   6.58011e-05
        0.225   6.55141e-05
        0.226    6.5231e-05
        0.227   6.49519e-05
        0.228   6.46768e-05
        0.229   6.44053e-05
         0.23   6.41376e-05
        0.231   6.38736e-05
        0.232   6.36131e-05
        0.233    6.3356e-05
        0.234   6.31024e-05
        0.235    6.2852e-05
        0.236    6.2605e-05
        0.237   6.23611e-05
        0.238   6.21204e-05
        0.239   6.18827e-05
         0.24    6.1648e-05
        0.241   6.14162e-05
        0.242   6.11874e-05
        0.243   6.09613e-05
        0.244   6.07381e-05
        0.245   6.05175e-05
        0.246   6.02996e-05
        0.247   6.00843e-05
        0.248   5.98716e-05
        0.249   5.96614e-05
         0.25   5.94537e-05
        0.251   5.92483e-05
        0.252   5.90454e-05
        0.253   5.88447e-05
        0.254   5.86464e-05
        0.255   5.84503e-05
        0.256   5.82564e-05
