# Probe 0 (0.05 0.05 0.005)
#       Probe             0
#        Time
        0.001       227.622
        0.002       227.622
        0.003       227.622
        0.004       227.621
        0.005        227.62
        0.006       227.617
        0.007       227.612
        0.008       227.605
        0.009       227.594
         0.01       227.578
        0.011       227.557
        0.012       227.529
        0.013       227.492
        0.014       227.445
        0.015       227.387
        0.016       227.316
        0.017        227.23
        0.018       227.126
        0.019       227.003
         0.02       226.859
        0.021       226.691
        0.022       226.497
        0.023       226.274
        0.024       226.019
        0.025       225.731
        0.026       225.405
        0.027       225.038
        0.028       224.629
        0.029       224.173
         0.03       223.668
        0.031       223.109
        0.032       222.494
        0.033        221.82
        0.034       221.081
        0.035       220.276
        0.036         219.4
        0.037        218.45
        0.038       217.421
        0.039       216.311
         0.04       215.116
        0.041       213.831
        0.042       212.454
        0.043       210.981
        0.044       209.407
        0.045       207.731
        0.046       205.947
        0.047       204.053
        0.048       202.046
        0.049       199.922
         0.05       197.679
        0.051       195.314
        0.052       192.824
        0.053       190.207
        0.054        187.46
        0.055       184.583
        0.056       181.572
        0.057       178.428
        0.058       175.148
        0.059       171.733
         0.06       168.182
        0.061       164.496
        0.062       160.675
        0.063       156.722
        0.064       152.637
        0.065       148.424
        0.066       144.088
        0.067       139.631
        0.068       135.061
        0.069       130.384
         0.07       125.609
        0.071       120.744
        0.072       115.801
        0.073       110.794
        0.074       105.736
        0.075       100.643
        0.076        95.535
        0.077       90.4308
        0.078       85.3522
        0.079       80.3222
         0.08        75.365
        0.081       70.5053
        0.082       65.7681
        0.083       61.1776
        0.084       56.7571
        0.085       52.5275
        0.086       48.5073
        0.087       44.7114
        0.088       41.1509
        0.089       37.8328
         0.09       34.7598
        0.091       31.9303
        0.092       29.3392
        0.093       26.9777
        0.094       24.8347
        0.095       22.8969
        0.096       21.1498
        0.097       19.5782
        0.098       18.1666
        0.099          16.9
          0.1        15.764
        0.101       14.7449
        0.102       13.8302
        0.103       13.0085
        0.104       12.2692
        0.105       11.6031
        0.106       11.0018
        0.107        10.458
        0.108        9.9651
        0.109        9.5174
         0.11       9.10981
        0.111       8.73789
        0.112       8.39774
        0.113       8.08592
        0.114       7.79944
        0.115       7.53563
        0.116       7.29217
        0.117         7.067
        0.118       6.85832
        0.119       6.66453
         0.12        6.4842
        0.121       6.31607
        0.122       6.15904
        0.123       6.01211
        0.124       5.87439
        0.125       5.74509
        0.126       5.62349
        0.127       5.50897
        0.128       5.40095
        0.129       5.29891
         0.13        5.2024
        0.131       5.11098
        0.132       5.02428
        0.133       4.94195
        0.134       4.86369
        0.135        4.7892
        0.136       4.71822
        0.137       4.65052
        0.138       4.58587
        0.139       4.52409
         0.14       4.46498
        0.141       4.40837
        0.142       4.35412
        0.143       4.30208
        0.144       4.25212
        0.145       4.20412
        0.146       4.15796
        0.147       4.11354
        0.148       4.07077
        0.149       4.02955
         0.15        3.9898
        0.151       3.95144
        0.152        3.9144
        0.153       3.87862
        0.154       3.84402
        0.155       3.81056
        0.156       3.77817
        0.157        3.7468
        0.158       3.71641
        0.159       3.68694
         0.16       3.65837
        0.161       3.63064
        0.162       3.60372
        0.163       3.57757
        0.164       3.55217
        0.165       3.52747
        0.166       3.50344
        0.167       3.48007
        0.168       3.45732
        0.169       3.43517
         0.17        3.4136
        0.171       3.39257
        0.172       3.37207
        0.173       3.35209
        0.174       3.33259
        0.175       3.31356
        0.176       3.29499
        0.177       3.27686
        0.178       3.25915
        0.179       3.24184
         0.18       3.22493
        0.181       3.20839
        0.182       3.19222
        0.183       3.17641
        0.184       3.16093
        0.185       3.14579
        0.186       3.13096
        0.187       3.11644
        0.188       3.10222
        0.189       3.08829
         0.19       3.07464
        0.191       3.06126
        0.192       3.04814
        0.193       3.03528
        0.194       3.02267
        0.195       3.01029
        0.196       2.99815
        0.197       2.98623
        0.198       2.97454
        0.199       2.96305
          0.2       2.95177
        0.201        2.9407
        0.202       2.92982
        0.203       2.91913
        0.204       2.90862
        0.205       2.89829
        0.206       2.88814
        0.207       2.87816
        0.208       2.86835
        0.209       2.85869
         0.21        2.8492
        0.211       2.83985
        0.212       2.83066
        0.213       2.82161
        0.214       2.81271
        0.215       2.80394
        0.216       2.79531
        0.217       2.78681
        0.218       2.77844
        0.219       2.77019
         0.22       2.76207
        0.221       2.75407
        0.222       2.74618
        0.223       2.73841
        0.224       2.73075
        0.225        2.7232
        0.226       2.71575
        0.227       2.70841
        0.228       2.70117
        0.229       2.69403
         0.23       2.68699
        0.231       2.68005
        0.232       2.67319
        0.233       2.66643
        0.234       2.65976
        0.235       2.65318
        0.236       2.64668
        0.237       2.64026
        0.238       2.63393
        0.239       2.62768
         0.24       2.62151
        0.241       2.61541
        0.242       2.60939
        0.243       2.60345
        0.244       2.59757
        0.245       2.59177
        0.246       2.58604
        0.247       2.58038
        0.248       2.57478
        0.249       2.56926
         0.25       2.56379
        0.251       2.55839
        0.252       2.55305
        0.253       2.54778
        0.254       2.54256
        0.255        2.5374
        0.256        2.5323
