# Probe 0 (0.05 0.05 0.005)
#       Probe             0
#        Time
        0.001       7.07164
        0.002       7.07164
        0.003       7.07164
        0.004       7.07164
        0.005       7.07163
        0.006       7.07162
        0.007       7.07159
        0.008       7.07155
        0.009       7.07148
         0.01       7.07139
        0.011       7.07127
        0.012       7.07111
        0.013        7.0709
        0.014       7.07063
        0.015        7.0703
        0.016       7.06989
        0.017       7.06939
        0.018        7.0688
        0.019        7.0681
         0.02       7.06727
        0.021        7.0663
        0.022       7.06519
        0.023        7.0639
        0.024       7.06244
        0.025       7.06077
        0.026       7.05889
        0.027       7.05677
        0.028        7.0544
        0.029       7.05175
         0.03       7.04881
        0.031       7.04555
        0.032       7.04196
        0.033         7.038
        0.034       7.03366
        0.035        7.0289
        0.036       7.02371
        0.037       7.01805
        0.038       7.01191
        0.039       7.00524
         0.04       6.99802
        0.041       6.99021
        0.042        6.9818
        0.043       6.97273
        0.044       6.96298
        0.045        6.9525
        0.046       6.94127
        0.047       6.92923
        0.048       6.91635
        0.049       6.90258
         0.05       6.88788
        0.051        6.8722
        0.052       6.85548
        0.053       6.83768
        0.054       6.81873
        0.055       6.79857
        0.056       6.77715
        0.057       6.75439
        0.058       6.73022
        0.059       6.70456
         0.06       6.67734
        0.061       6.64847
        0.062       6.61785
        0.063       6.58539
        0.064       6.55098
        0.065       6.51452
        0.066       6.47588
        0.067       6.43495
        0.068       6.39159
        0.069       6.34567
         0.07       6.29706
        0.071        6.2456
        0.072       6.19114
        0.073       6.13354
        0.074       6.07266
        0.075       6.00835
        0.076       5.94049
        0.077       5.86895
        0.078       5.79364
        0.079       5.71451
         0.08       5.63151
        0.081       5.54467
        0.082       5.45405
        0.083       5.35978
        0.084       5.26206
        0.085       5.16116
        0.086       5.05742
        0.087       4.95125
        0.088       4.84314
        0.089       4.73361
         0.09       4.62323
        0.091       4.51261
        0.092       4.40234
        0.093       4.29302
        0.094       4.18518
        0.095       4.07933
        0.096       3.97592
        0.097       3.87532
        0.098       3.77782
        0.099       3.68366
          0.1         3.593
        0.101       3.50593
        0.102       3.42249
        0.103       3.34268
        0.104       3.26645
        0.105       3.19372
        0.106       3.12439
        0.107       3.05834
        0.108       2.99545
        0.109       2.93555
         0.11       2.87853
        0.111       2.82422
        0.112       2.77249
        0.113       2.72319
        0.114       2.67619
        0.115       2.63136
        0.116       2.58857
        0.117       2.54771
        0.118       2.50865
        0.119       2.47131
         0.12       2.43557
        0.121       2.40134
        0.122       2.36854
        0.123       2.33708
        0.124       2.30689
        0.125       2.27789
        0.126       2.25002
        0.127       2.22321
        0.128       2.19741
        0.129       2.17256
         0.13       2.14861
        0.131       2.12551
        0.132       2.10322
        0.133        2.0817
        0.134        2.0609
        0.135       2.04079
        0.136       2.02133
        0.137        2.0025
        0.138       1.98427
        0.139       1.96659
         0.14       1.94946
        0.141       1.93284
        0.142        1.9167
        0.143       1.90104
        0.144       1.88582
        0.145       1.87103
        0.146       1.85664
        0.147       1.84265
        0.148       1.82903
        0.149       1.81577
         0.15       1.80285
        0.151       1.79027
        0.152         1.778
        0.153       1.76603
        0.154       1.75436
        0.155       1.74296
        0.156       1.73184
        0.157       1.72098
        0.158       1.71037
        0.159           1.7
         0.16       1.68986
        0.161       1.67995
        0.162       1.67025
        0.163       1.66077
        0.164       1.65148
        0.165       1.64239
        0.166       1.63349
        0.167       1.62476
        0.168       1.61622
        0.169       1.60785
         0.17       1.59964
        0.171       1.59159
        0.172       1.58369
        0.173       1.57595
        0.174       1.56835
        0.175       1.56089
        0.176       1.55356
        0.177       1.54637
        0.178       1.53931
        0.179       1.53238
         0.18       1.52556
        0.181       1.51886
        0.182       1.51228
        0.183       1.50581
        0.184       1.49945
        0.185       1.49319
        0.186       1.48703
        0.187       1.48098
        0.188       1.47502
        0.189       1.46915
         0.19       1.46338
        0.191        1.4577
        0.192       1.45211
        0.193        1.4466
        0.194       1.44117
        0.195       1.43583
        0.196       1.43056
        0.197       1.42537
        0.198       1.42026
        0.199       1.41522
          0.2       1.41025
        0.201       1.40535
        0.202       1.40052
        0.203       1.39576
        0.204       1.39106
        0.205       1.38643
        0.206       1.38186
        0.207       1.37735
        0.208       1.37289
        0.209        1.3685
         0.21       1.36417
        0.211       1.35989
        0.212       1.35566
        0.213       1.35149
        0.214       1.34737
        0.215       1.34331
        0.216       1.33929
        0.217       1.33532
        0.218        1.3314
        0.219       1.32753
         0.22        1.3237
        0.221       1.31992
        0.222       1.31619
        0.223       1.31249
        0.224       1.30884
        0.225       1.30524
        0.226       1.30167
        0.227       1.29814
        0.228       1.29466
        0.229       1.29121
         0.23        1.2878
        0.231       1.28443
        0.232       1.28109
        0.233       1.27779
        0.234       1.27453
        0.235        1.2713
        0.236        1.2681
        0.237       1.26494
        0.238       1.26181
        0.239       1.25872
         0.24       1.25565
        0.241       1.25262
        0.242       1.24962
        0.243       1.24665
        0.244        1.2437
        0.245       1.24079
        0.246       1.23791
        0.247       1.23505
        0.248       1.23222
        0.249       1.22942
         0.25       1.22665
        0.251        1.2239
        0.252       1.22118
        0.253       1.21848
        0.254       1.21581
        0.255       1.21317
        0.256       1.21055
