9.066180 
9.066180 
9.066180 
9.066180 
9.066180 
9.066180 
9.066180 
9.066180 
9.066180 
9.066180 
9.066180 
9.066180 
9.066180 
9.066180 
9.066180 
9.066180 
9.066180 
9.066180 
9.066180 
9.066180 
9.066180 
9.066180 
9.066180 
9.066180 
9.066180 
9.066180 
9.066180 
9.066180 
9.066180 
9.066180 
9.066180 
9.066180 
9.066180 
9.066180 
9.066180 
9.066180 
9.066180 
9.066180 
9.066180 
9.066180 
9.066180 
9.066180 
9.066180 
9.066180 
9.066180 
9.066180 
9.066180 
9.066180 
9.066180 
9.066180 
9.066180 
9.066180 
9.066180 
9.066180 
9.066180 
9.066180 
9.066180 
9.066175 
9.066157 
9.066107 
9.066001 
9.065530 
9.064460 
9.062419 
9.058950 
9.052393 
9.042145 
9.027050 
9.005807 
8.986142 
8.962061 
8.932970 
8.898267 
8.867485 
8.832745 
8.793751 
8.750218 
8.701866 
8.648401 
8.589543 
8.525038 
8.450248 
8.368576 
8.279781 
8.183684 
8.092849 
7.996181 
7.893663 
7.785322 
7.693830 
7.598672 
7.499944 
7.397758 
7.305511 
7.210834 
7.113861 
7.014736 
6.914569 
6.812625 
6.709096 
6.604182 
6.507755 
6.410529 
6.312680 
6.214387 
6.128519 
6.042576 
5.956679 
5.870950 
5.785909 
5.701270 
5.617144 
5.533643 
5.447433 
5.362126 
5.277824 
5.194628 
5.103773 
5.014497 
4.926895 
4.841054 
4.736381 
4.634679 
4.536023 
4.440472 
4.343152 
4.249318 
4.158950 
4.072005 
3.997955 
3.926478 
3.857519 
3.791008 
3.721312 
3.654339 
3.589994 
3.528169 
3.460406 
3.395660 
3.333795 
3.274651 
3.199734 
3.129102 
3.062497 
2.999582 
2.939166 
2.882034 
2.827976 
2.776739 
2.730725 
2.686896 
2.645118 
2.605244 
2.565504 
2.527578 
2.491354 
2.456713 
2.421300 
2.387470 
2.355125 
2.324161 
2.292051 
2.261361 
2.231999 
2.203875 
2.174450 
2.146316 
2.119389 
2.093588 
2.066421 
2.040440 
2.015570 
1.991732 
1.966510 
1.942387 
1.919290 
1.897149 
1.873631 
1.851136 
1.829596 
1.808945 
1.786939 
1.765889 
1.745732 
1.726405 
1.705753 
1.685999 
1.667082 
1.648943 
1.629515 
1.610931 
1.593135 
1.576069 
1.557754 
1.540235 
1.523458 
1.507370 
1.490071 
1.473526 
1.457681 
1.442486 
1.439005 
1.435557 
1.432141 
1.428757 
