# Probe 0 (0.05 0.05 0.005)
#       Probe             0
#        Time
        0.001   1.17936e+07
        0.002   1.17935e+07
        0.003   1.17935e+07
        0.004   1.17934e+07
        0.005   1.17932e+07
        0.006   1.17928e+07
        0.007    1.1792e+07
        0.008   1.17909e+07
        0.009   1.17891e+07
         0.01   1.17867e+07
        0.011   1.17834e+07
        0.012    1.1779e+07
        0.013   1.17733e+07
        0.014   1.17661e+07
        0.015   1.17571e+07
        0.016    1.1746e+07
        0.017   1.17326e+07
        0.018   1.17166e+07
        0.019   1.16976e+07
         0.02   1.16753e+07
        0.021   1.16494e+07
        0.022   1.16195e+07
        0.023   1.15852e+07
        0.024   1.15461e+07
        0.025   1.15019e+07
        0.026   1.14522e+07
        0.027   1.13965e+07
        0.028   1.13344e+07
        0.029   1.12655e+07
         0.03   1.11895e+07
        0.031   1.11059e+07
        0.032   1.10143e+07
        0.033   1.09144e+07
        0.034   1.08058e+07
        0.035   1.06881e+07
        0.036   1.05611e+07
        0.037   1.04245e+07
        0.038   1.02779e+07
        0.039   1.01213e+07
         0.04   9.95445e+06
        0.041    9.7772e+06
        0.042   9.58951e+06
        0.043   9.39136e+06
        0.044   9.18281e+06
        0.045   8.96398e+06
        0.046   8.73505e+06
        0.047   8.49629e+06
        0.048   8.24802e+06
        0.049   7.99067e+06
         0.05   7.72472e+06
        0.051   7.45075e+06
        0.052    7.1694e+06
        0.053   6.88143e+06
        0.054   6.58762e+06
        0.055   6.28889e+06
        0.056   5.98618e+06
        0.057   5.68053e+06
        0.058   5.37302e+06
        0.059   5.06481e+06
         0.06    4.7571e+06
        0.061    4.4511e+06
        0.062   4.14809e+06
        0.063   3.84935e+06
        0.064   3.55615e+06
        0.065   3.26976e+06
        0.066   2.99144e+06
        0.067   2.72238e+06
        0.068   2.46372e+06
        0.069   2.21654e+06
         0.07   1.98179e+06
        0.071   1.76034e+06
        0.072   1.55289e+06
        0.073   1.36002e+06
        0.074   1.18212e+06
        0.075   1.01942e+06
        0.076        871943
        0.077        739519
        0.078        621791
        0.079        518212
         0.08        428064
        0.081        350482
        0.082        284476
        0.083        228970
        0.084        182835
        0.085        144931
        0.086        114135
        0.087       89382.7
        0.088       69684.7
        0.089       54150.9
         0.09       41998.3
        0.091       32554.5
        0.092       25254.8
        0.093       19634.3
        0.094       15317.1
        0.095       12004.2
        0.096       9460.64
        0.097       7504.42
        0.098       5995.44
        0.099       4826.82
          0.1       3917.39
        0.101       3205.72
        0.102       2645.38
        0.103       2201.29
        0.104       1846.91
        0.105       1562.13
        0.106       1331.65
        0.107       1143.78
        0.108       989.567
        0.109       862.094
         0.11        756.01
        0.111       667.144
        0.112       592.225
        0.113       528.675
        0.114       474.449
        0.115       427.916
        0.116       387.766
        0.117       352.944
        0.118       322.592
        0.119       296.011
         0.12       272.627
        0.121       251.966
        0.122       233.636
        0.123       217.311
        0.124       202.716
        0.125       189.623
        0.126       177.836
        0.127       167.191
        0.128       157.547
        0.129       148.786
         0.13       140.803
        0.131        133.51
        0.132        126.83
        0.133       120.697
        0.134       115.053
        0.135       109.847
        0.136       105.035
        0.137       100.578
        0.138       96.4419
        0.139        92.596
         0.14       89.0138
        0.141       85.6712
        0.142       82.5472
        0.143       79.6227
        0.144       76.8808
        0.145       74.3063
        0.146       71.8856
        0.147       69.6063
        0.148       67.4574
        0.149       65.4288
         0.15       63.5115
        0.151       61.6973
        0.152       59.9786
        0.153       58.3486
        0.154       56.8012
        0.155       55.3305
        0.156       53.9315
        0.157       52.5994
        0.158       51.3298
        0.159       50.1187
         0.16       48.9624
        0.161       47.8575
        0.162       46.8008
        0.163       45.7895
        0.164       44.8208
        0.165       43.8923
        0.166       43.0017
        0.167       42.1468
        0.168       41.3257
        0.169       40.5365
         0.17       39.7774
        0.171       39.0469
        0.172       38.3434
        0.173       37.6657
        0.174       37.0123
        0.175        36.382
        0.176       35.7737
        0.177       35.1863
        0.178       34.6188
        0.179       34.0702
         0.18       33.5398
        0.181       33.0265
        0.182       32.5297
        0.183       32.0485
        0.184       31.5824
        0.185       31.1306
        0.186       30.6925
        0.187       30.2675
        0.188       29.8551
        0.189       29.4547
         0.19       29.0658
        0.191        28.688
        0.192       28.3209
        0.193       27.9639
        0.194       27.6167
        0.195       27.2788
        0.196       26.9501
        0.197         26.63
        0.198       26.3183
        0.199       26.0146
          0.2       25.7187
        0.201       25.4303
        0.202        25.149
        0.203       24.8747
        0.204       24.6071
        0.205        24.346
        0.206        24.091
        0.207       23.8421
        0.208        23.599
        0.209       23.3616
         0.21       23.1295
        0.211       22.9028
        0.212       22.6811
        0.213       22.4643
        0.214       22.2522
        0.215       22.0448
        0.216       21.8419
        0.217       21.6432
        0.218       21.4488
        0.219       21.2584
         0.22       21.0719
        0.221       20.8893
        0.222       20.7103
        0.223        20.535
        0.224       20.3631
        0.225       20.1947
        0.226       20.0295
        0.227       19.8675
        0.228       19.7087
        0.229       19.5528
         0.23       19.3999
        0.231       19.2498
        0.232       19.1026
        0.233        18.958
        0.234        18.816
        0.235       18.6767
        0.236       18.5398
        0.237       18.4053
        0.238       18.2732
        0.239       18.1434
         0.24       18.0158
        0.241       17.8904
        0.242       17.7672
        0.243        17.646
        0.244       17.5269
        0.245       17.4097
        0.246       17.2945
        0.247       17.1811
        0.248       17.0696
        0.249       16.9598
         0.25       16.8519
        0.251       16.7456
        0.252        16.641
        0.253        16.538
        0.254       16.4366
        0.255       16.3368
        0.256       16.2385
