# Probe 0 (0.05 0.05 0.005)
#       Probe             0
#        Time
          250     0.0399706
          500     0.0395003
          750     0.0374574
         1000     0.0327513
         1250     0.0258466
         1500     0.0188016
         1750       0.01325
         2000    0.00941725
         2250    0.00687989
         2500     0.0051915
         2750    0.00404031
         3000    0.00323152
         3250    0.00264609
         3500    0.00221053
         3750    0.00187841
         4000    0.00161959
         4250    0.00141402
         4500    0.00124797
         4750    0.00111184
         5000   0.000998756
