# Probe 0 (0.05 0.05 0.005)
#       Probe             0
#        Time
            1    0.00602647
            2    0.00602647
            3    0.00602647
            4    0.00602647
            5    0.00602647
            6    0.00602647
            7    0.00602647
            8    0.00602647
            9    0.00602647
           10    0.00602647
           11    0.00602647
           12    0.00602647
           13    0.00602647
           14    0.00602647
           15    0.00602647
           16    0.00602647
           17    0.00602647
           18    0.00602647
           19    0.00602647
           20    0.00602647
           21    0.00602647
           22    0.00602647
           23    0.00602647
           24    0.00602647
           25    0.00602647
           26    0.00602647
           27    0.00602647
           28    0.00602647
           29    0.00602647
           30    0.00602647
           31    0.00602647
           32    0.00602647
           33    0.00602647
           34    0.00602647
           35    0.00602647
           36    0.00602647
           37    0.00602647
           38    0.00602647
           39    0.00602647
           40    0.00602647
           41    0.00602647
           42    0.00602647
           43    0.00602647
           44    0.00602647
           45    0.00602647
           46    0.00602647
           47    0.00602647
           48    0.00602647
           49    0.00602647
           50    0.00602647
           51    0.00602647
           52    0.00602647
           53    0.00602647
           54    0.00602647
           55    0.00602647
           56    0.00602647
           57    0.00602647
           58    0.00602647
           59    0.00602647
           60    0.00602647
           61    0.00602647
           62    0.00602647
           63    0.00602647
           64    0.00602647
           65    0.00602647
           66    0.00602647
           67    0.00602647
           68    0.00602647
           69    0.00602647
           70    0.00602647
           71    0.00602647
           72    0.00602647
           73    0.00602647
           74    0.00602647
           75    0.00602647
           76    0.00602647
           77    0.00602647
           78    0.00602647
           79    0.00602647
           80    0.00602647
           81    0.00602647
           82    0.00602647
           83    0.00602647
           84    0.00602647
           85    0.00602647
           86    0.00602647
           87    0.00602647
           88    0.00602647
           89    0.00602647
           90    0.00602647
           91    0.00602647
           92    0.00602647
           93    0.00602647
           94    0.00602647
           95    0.00602647
           96    0.00602647
           97    0.00602647
           98    0.00602647
           99    0.00602647
          100    0.00602647
          101    0.00602647
          102    0.00602647
          103    0.00602647
          104    0.00602647
          105    0.00602647
          106    0.00602647
          107    0.00602647
          108    0.00602647
          109    0.00602647
          110    0.00602647
          111    0.00602647
          112    0.00602647
          113    0.00602647
          114    0.00602647
          115    0.00602647
          116    0.00602647
          117    0.00602647
          118    0.00602647
          119    0.00602647
          120    0.00602647
          121    0.00602647
          122    0.00602647
          123    0.00602647
          124    0.00602647
          125    0.00602647
          126    0.00602647
          127    0.00602647
          128    0.00602647
          129    0.00602647
          130    0.00602647
          131    0.00602647
          132    0.00602647
          133    0.00602647
          134    0.00602647
          135    0.00602647
          136    0.00602647
          137    0.00602647
          138    0.00602647
          139    0.00602647
          140    0.00602647
          141    0.00602647
          142    0.00602647
          143    0.00602647
          144    0.00602647
          145    0.00602647
          146    0.00602647
          147    0.00602647
          148    0.00602647
          149    0.00602647
          150    0.00602647
          151    0.00602647
          152    0.00602647
          153    0.00602647
          154    0.00602647
          155    0.00602647
          156    0.00602647
          157    0.00602647
          158    0.00602647
          159    0.00602647
          160    0.00602647
          161    0.00602647
          162    0.00602647
          163    0.00602647
          164    0.00602647
          165    0.00602647
          166    0.00602647
          167    0.00602647
          168    0.00602647
          169    0.00602647
          170    0.00602647
          171    0.00602647
          172    0.00602647
          173    0.00602647
          174    0.00602647
          175    0.00602647
          176    0.00602647
          177    0.00602647
          178    0.00602647
          179    0.00602647
          180    0.00602647
          181    0.00602647
          182    0.00602647
          183    0.00602647
          184    0.00602647
          185    0.00602647
          186    0.00602647
          187    0.00602647
          188    0.00602647
          189    0.00602647
          190    0.00602647
          191    0.00602647
          192    0.00602647
          193    0.00602647
          194    0.00602647
          195    0.00602647
          196    0.00602647
          197    0.00602647
          198    0.00602647
          199    0.00602647
          200    0.00602647
          201    0.00602647
          202    0.00602647
          203    0.00602647
          204    0.00602647
          205    0.00602647
          206    0.00602647
          207    0.00602647
          208    0.00602647
          209    0.00602647
          210    0.00602647
          211    0.00602647
          212    0.00602647
          213    0.00602647
          214    0.00602647
          215    0.00602647
          216    0.00602647
          217    0.00602647
          218    0.00602647
          219    0.00602647
          220    0.00602647
          221    0.00602647
          222    0.00602647
          223    0.00602647
          224    0.00602647
          225    0.00602647
          226    0.00602647
          227    0.00602647
          228    0.00602647
          229    0.00602647
          230    0.00602647
          231    0.00602647
          232    0.00602647
          233    0.00602647
          234    0.00602647
          235    0.00602647
          236    0.00602647
          237    0.00602647
          238    0.00602647
          239    0.00602647
          240    0.00602647
          241    0.00602647
          242    0.00602647
          243    0.00602647
          244    0.00602647
          245    0.00602647
          246    0.00602647
          247    0.00602647
          248    0.00602647
          249    0.00602647
          250    0.00602647
          251    0.00602647
          252    0.00602647
          253    0.00602647
          254    0.00602647
          255    0.00602647
          256    0.00602647
          257    0.00602647
          258    0.00602647
          259    0.00602647
          260    0.00602647
          261    0.00602647
          262    0.00602647
          263    0.00602647
          264    0.00602647
          265    0.00602647
          266    0.00602647
          267    0.00602647
          268    0.00602647
          269    0.00602647
          270    0.00602647
          271    0.00602647
          272    0.00602647
          273    0.00602647
          274    0.00602647
          275    0.00602647
          276    0.00602647
          277    0.00602647
          278    0.00602647
          279    0.00602647
          280    0.00602647
          281    0.00602647
          282    0.00602647
          283    0.00602647
          284    0.00602647
          285    0.00602647
          286    0.00602647
          287    0.00602647
          288    0.00602647
          289    0.00602647
          290    0.00602647
          291    0.00602647
          292    0.00602647
          293    0.00602647
          294    0.00602647
          295    0.00602647
          296    0.00602647
          297    0.00602647
          298    0.00602647
          299    0.00602647
          300    0.00602647
          301    0.00602647
          302    0.00602647
          303    0.00602647
          304    0.00602647
          305    0.00602647
          306    0.00602647
          307    0.00602647
          308    0.00602647
          309    0.00602647
          310    0.00602647
          311    0.00602647
          312    0.00602647
          313    0.00602647
          314    0.00602647
          315    0.00602647
          316    0.00602647
          317    0.00602647
          318    0.00602647
          319    0.00602647
          320    0.00602647
          321    0.00602647
          322    0.00602647
          323    0.00602647
          324    0.00602647
          325    0.00602647
          326    0.00602647
          327    0.00602647
          328    0.00602647
          329    0.00602647
          330    0.00602647
          331    0.00602647
          332    0.00602647
          333    0.00602647
          334    0.00602647
          335    0.00602647
          336    0.00602647
          337    0.00602647
          338    0.00602647
          339    0.00602647
          340    0.00602647
          341    0.00602647
          342    0.00602647
          343    0.00602647
          344    0.00602647
          345    0.00602647
          346    0.00602647
          347    0.00602647
          348    0.00602647
          349    0.00602647
          350    0.00602647
          351    0.00602647
          352    0.00602647
          353    0.00602647
          354    0.00602647
          355    0.00602647
          356    0.00602647
          357    0.00602647
          358    0.00602647
          359    0.00602647
          360    0.00602647
          361    0.00602647
          362    0.00602647
          363    0.00602647
          364    0.00602647
          365    0.00602647
          366    0.00602647
          367    0.00602647
          368    0.00602647
          369    0.00602647
          370    0.00602647
          371    0.00602647
          372    0.00602647
          373    0.00602647
          374    0.00602647
          375    0.00602647
          376    0.00602647
          377    0.00602647
          378    0.00602647
          379    0.00602647
          380    0.00602647
          381    0.00602647
          382    0.00602647
          383    0.00602647
          384    0.00602647
          385    0.00602647
          386    0.00602647
          387    0.00602647
          388    0.00602647
          389    0.00602647
          390    0.00602647
          391    0.00602647
          392    0.00602647
          393    0.00602647
          394    0.00602647
          395    0.00602647
          396    0.00602647
          397    0.00602647
          398    0.00602647
          399    0.00602647
          400    0.00602647
          401    0.00602647
          402    0.00602647
          403    0.00602647
          404    0.00602647
          405    0.00602647
          406    0.00602647
          407    0.00602647
          408    0.00602647
          409    0.00602647
          410    0.00602647
          411    0.00602647
          412    0.00602647
          413    0.00602647
          414    0.00602647
          415    0.00602647
          416    0.00602647
          417    0.00602647
          418    0.00602647
          419    0.00602647
          420    0.00602647
          421    0.00602647
          422    0.00602647
          423    0.00602647
          424    0.00602647
          425    0.00602647
          426    0.00602647
          427    0.00602647
          428    0.00602647
          429    0.00602647
          430    0.00602647
          431    0.00602647
          432    0.00602647
          433    0.00602647
          434    0.00602647
          435    0.00602647
          436    0.00602647
          437    0.00602647
          438    0.00602647
          439    0.00602647
          440    0.00602647
          441    0.00602647
          442    0.00602647
          443    0.00602647
          444    0.00602647
          445    0.00602647
          446    0.00602647
          447    0.00602647
          448    0.00602647
          449    0.00602647
          450    0.00602647
          451    0.00602647
          452    0.00602647
          453    0.00602647
          454    0.00602647
          455    0.00602647
          456    0.00602647
          457    0.00602647
          458    0.00602647
          459    0.00602647
          460    0.00602647
          461    0.00602647
          462    0.00602647
          463    0.00602647
          464    0.00602647
          465    0.00602647
          466    0.00602647
          467    0.00602647
          468    0.00602647
          469    0.00602647
          470    0.00602647
          471    0.00602647
          472    0.00602647
          473    0.00602647
          474    0.00602647
          475    0.00602647
          476    0.00602647
          477    0.00602647
          478    0.00602647
          479    0.00602647
          480    0.00602647
          481    0.00602647
          482    0.00602647
          483    0.00602647
          484    0.00602647
          485    0.00602647
          486    0.00602647
          487    0.00602647
          488    0.00602647
          489    0.00602647
          490    0.00602647
          491    0.00602647
          492    0.00602647
          493    0.00602647
          494    0.00602647
          495    0.00602647
          496    0.00602647
          497    0.00602647
          498    0.00602647
          499    0.00602647
          500    0.00602647
          501    0.00602647
          502    0.00602647
          503    0.00602647
          504    0.00602647
          505    0.00602647
          506    0.00602647
          507    0.00602647
          508    0.00602647
          509    0.00602647
          510    0.00602647
          511    0.00602647
          512    0.00602647
          513    0.00602647
          514    0.00602647
          515    0.00602647
          516    0.00602647
          517    0.00602647
          518    0.00602647
          519    0.00602647
          520    0.00602647
          521    0.00602647
          522    0.00602647
          523    0.00602647
          524    0.00602647
          525    0.00602647
          526    0.00602647
          527    0.00602647
          528    0.00602647
          529    0.00602647
          530    0.00602647
          531    0.00602647
          532    0.00602647
          533    0.00602647
          534    0.00602647
          535    0.00602647
          536    0.00602647
          537    0.00602647
          538    0.00602647
          539    0.00602647
          540    0.00602647
          541    0.00602647
          542    0.00602647
          543    0.00602647
          544    0.00602647
          545    0.00602647
          546    0.00602647
          547    0.00602647
          548    0.00602647
          549    0.00602647
          550    0.00602647
          551    0.00602647
          552    0.00602647
          553    0.00602647
          554    0.00602647
          555    0.00602647
          556    0.00602647
          557    0.00602647
          558    0.00602647
          559    0.00602647
          560    0.00602647
          561    0.00602647
          562    0.00602647
          563    0.00602647
          564    0.00602647
          565    0.00602647
          566    0.00602647
          567    0.00602647
          568    0.00602647
          569    0.00602647
          570    0.00602647
          571    0.00602647
          572    0.00602647
          573    0.00602647
          574    0.00602647
          575    0.00602647
          576    0.00602647
          577    0.00602647
          578    0.00602647
          579    0.00602647
          580    0.00602647
          581    0.00602647
          582    0.00602647
          583    0.00602647
          584    0.00602647
          585    0.00602647
          586    0.00602647
          587    0.00602647
          588    0.00602647
          589    0.00602647
          590    0.00602647
          591    0.00602647
          592    0.00602647
          593    0.00602647
          594    0.00602647
          595    0.00602647
          596    0.00602647
          597    0.00602647
          598    0.00602647
          599    0.00602647
          600    0.00602647
          601    0.00602647
          602    0.00602647
          603    0.00602647
          604    0.00602647
          605    0.00602647
          606    0.00602647
          607    0.00602647
          608    0.00602647
          609    0.00602647
          610    0.00602647
          611    0.00602647
          612    0.00602647
          613    0.00602647
          614    0.00602647
          615    0.00602647
          616    0.00602647
          617    0.00602647
          618    0.00602647
          619    0.00602647
          620    0.00602647
          621    0.00602647
          622    0.00602647
          623    0.00602647
          624    0.00602647
          625    0.00602647
          626    0.00602647
          627    0.00602647
          628    0.00602647
          629    0.00602647
          630    0.00602647
          631    0.00602647
          632    0.00602647
          633    0.00602647
          634    0.00602647
          635    0.00602647
          636    0.00602647
          637    0.00602647
          638    0.00602647
          639    0.00602647
          640    0.00602647
          641    0.00602647
          642    0.00602647
          643    0.00602647
          644    0.00602647
          645    0.00602647
          646    0.00602647
          647    0.00602647
          648    0.00602647
          649    0.00602647
          650    0.00602647
          651    0.00602647
          652    0.00602647
          653    0.00602647
          654    0.00602647
          655    0.00602647
          656    0.00602647
          657    0.00602647
          658    0.00602647
          659    0.00602647
          660    0.00602647
          661    0.00602647
          662    0.00602647
          663    0.00602647
          664    0.00602647
          665    0.00602647
          666    0.00602647
          667    0.00602647
          668    0.00602647
          669    0.00602647
          670    0.00602647
          671    0.00602647
          672    0.00602647
          673    0.00602647
          674    0.00602647
          675    0.00602647
          676    0.00602647
          677    0.00602647
          678    0.00602647
          679    0.00602647
          680    0.00602647
          681    0.00602647
          682    0.00602647
          683    0.00602647
          684    0.00602647
          685    0.00602647
          686    0.00602647
          687    0.00602647
          688    0.00602647
          689    0.00602647
          690    0.00602647
          691    0.00602647
          692    0.00602647
          693    0.00602647
          694    0.00602647
          695    0.00602647
          696    0.00602647
          697    0.00602647
          698    0.00602647
          699    0.00602647
          700    0.00602647
          701    0.00602647
          702    0.00602647
          703    0.00602647
          704    0.00602647
          705    0.00602647
          706    0.00602647
          707    0.00602647
          708    0.00602647
          709    0.00602647
          710    0.00602647
          711    0.00602647
          712    0.00602647
          713    0.00602647
          714    0.00602647
          715    0.00602647
          716    0.00602647
          717    0.00602647
          718    0.00602647
          719    0.00602647
          720    0.00602647
          721    0.00602647
          722    0.00602647
          723    0.00602647
          724    0.00602647
          725    0.00602647
          726    0.00602647
          727    0.00602647
          728    0.00602647
          729    0.00602647
          730    0.00602647
          731    0.00602647
          732    0.00602647
          733    0.00602647
          734    0.00602647
          735    0.00602647
          736    0.00602647
          737    0.00602647
          738    0.00602647
          739    0.00602647
          740    0.00602647
          741    0.00602647
          742    0.00602647
          743    0.00602647
          744    0.00602647
          745    0.00602647
          746    0.00602647
          747    0.00602647
          748    0.00602647
          749    0.00602647
          750    0.00602647
          751    0.00602647
          752    0.00602647
          753    0.00602647
          754    0.00602647
          755    0.00602647
          756    0.00602647
          757    0.00602647
          758    0.00602647
          759    0.00602647
          760    0.00602647
          761    0.00602647
          762    0.00602647
          763    0.00602647
          764    0.00602647
          765    0.00602647
          766    0.00602647
          767    0.00602647
          768    0.00602647
          769    0.00602647
          770    0.00602647
          771    0.00602647
          772    0.00602647
          773    0.00602647
          774    0.00602647
          775    0.00602647
          776    0.00602647
          777    0.00602647
          778    0.00602647
          779    0.00602647
          780    0.00602647
          781    0.00602647
          782    0.00602647
          783    0.00602647
          784    0.00602647
          785    0.00602647
          786    0.00602647
          787    0.00602647
          788    0.00602647
          789    0.00602647
          790    0.00602647
          791    0.00602647
          792    0.00602647
          793    0.00602647
          794    0.00602647
          795    0.00602647
          796    0.00602647
          797    0.00602647
          798    0.00602647
          799    0.00602647
          800    0.00602647
          801    0.00602647
          802    0.00602647
          803    0.00602647
          804    0.00602647
          805    0.00602647
          806    0.00602647
          807    0.00602647
          808    0.00602647
          809    0.00602647
          810    0.00602647
          811    0.00602647
          812    0.00602647
          813    0.00602647
          814    0.00602647
          815    0.00602647
          816    0.00602647
          817    0.00602647
          818    0.00602647
          819    0.00602647
          820    0.00602647
          821    0.00602647
          822    0.00602647
          823    0.00602647
          824    0.00602647
          825    0.00602647
          826    0.00602647
          827    0.00602647
          828    0.00602647
          829    0.00602647
          830    0.00602647
          831    0.00602647
          832    0.00602647
          833    0.00602647
          834    0.00602647
          835    0.00602647
          836    0.00602647
          837    0.00602647
          838    0.00602647
          839    0.00602647
          840    0.00602647
          841    0.00602647
          842    0.00602647
          843    0.00602647
          844    0.00602647
          845    0.00602647
          846    0.00602647
          847    0.00602647
          848    0.00602647
          849    0.00602647
          850    0.00602647
          851    0.00602647
          852    0.00602647
          853    0.00602647
          854    0.00602647
          855    0.00602647
          856    0.00602647
          857    0.00602647
          858    0.00602647
          859    0.00602647
          860    0.00602647
          861    0.00602647
          862    0.00602647
          863    0.00602647
          864    0.00602647
          865    0.00602647
          866    0.00602647
          867    0.00602647
          868    0.00602647
          869    0.00602647
          870    0.00602647
          871    0.00602647
          872    0.00602647
          873    0.00602647
          874    0.00602647
          875    0.00602647
          876    0.00602646
          877    0.00602646
          878    0.00602646
          879    0.00602646
          880    0.00602646
          881    0.00602646
          882    0.00602646
          883    0.00602646
          884    0.00602646
          885    0.00602646
          886    0.00602646
          887    0.00602646
          888    0.00602646
          889    0.00602646
          890    0.00602646
          891    0.00602646
          892    0.00602646
          893    0.00602646
          894    0.00602646
          895    0.00602646
          896    0.00602646
          897    0.00602646
          898    0.00602646
          899    0.00602646
          900    0.00602646
          901    0.00602646
          902    0.00602646
          903    0.00602646
          904    0.00602646
          905    0.00602646
          906    0.00602646
          907    0.00602646
          908    0.00602646
          909    0.00602646
          910    0.00602646
          911    0.00602646
          912    0.00602646
          913    0.00602646
          914    0.00602646
          915    0.00602646
          916    0.00602646
          917    0.00602646
          918    0.00602646
          919    0.00602646
          920    0.00602646
          921    0.00602646
          922    0.00602646
          923    0.00602646
          924    0.00602646
          925    0.00602646
          926    0.00602646
          927    0.00602646
          928    0.00602646
          929    0.00602646
          930    0.00602646
          931    0.00602646
          932    0.00602646
          933    0.00602646
          934    0.00602646
          935    0.00602646
          936    0.00602646
          937    0.00602646
          938    0.00602646
          939    0.00602646
          940    0.00602646
          941    0.00602646
          942    0.00602646
          943    0.00602646
          944    0.00602646
          945    0.00602646
          946    0.00602646
          947    0.00602646
          948    0.00602646
          949    0.00602646
          950    0.00602646
          951    0.00602646
          952    0.00602646
          953    0.00602646
          954    0.00602646
          955    0.00602646
          956    0.00602646
          957    0.00602646
          958    0.00602646
          959    0.00602646
          960    0.00602646
          961    0.00602646
          962    0.00602646
          963    0.00602646
          964    0.00602646
          965    0.00602646
          966    0.00602646
          967    0.00602646
          968    0.00602646
          969    0.00602646
          970    0.00602646
          971    0.00602646
          972    0.00602646
          973    0.00602646
          974    0.00602646
          975    0.00602646
          976    0.00602646
          977    0.00602646
          978    0.00602646
          979    0.00602646
          980    0.00602646
          981    0.00602646
          982    0.00602646
          983    0.00602646
          984    0.00602646
          985    0.00602646
          986    0.00602646
          987    0.00602646
          988    0.00602646
          989    0.00602646
          990    0.00602646
          991    0.00602646
          992    0.00602646
          993    0.00602646
          994    0.00602646
          995    0.00602646
          996    0.00602646
          997    0.00602646
          998    0.00602646
          999    0.00602646
         1000    0.00602646
         1001    0.00602646
         1002    0.00602646
         1003    0.00602646
         1004    0.00602646
         1005    0.00602646
         1006    0.00602646
         1007    0.00602646
         1008    0.00602646
         1009    0.00602646
         1010    0.00602646
         1011    0.00602646
         1012    0.00602646
         1013    0.00602646
         1014    0.00602646
         1015    0.00602646
         1016    0.00602646
         1017    0.00602646
         1018    0.00602646
         1019    0.00602646
         1020    0.00602646
         1021    0.00602646
         1022    0.00602646
         1023    0.00602646
         1024    0.00602646
         1025    0.00602646
         1026    0.00602646
         1027    0.00602646
         1028    0.00602646
         1029    0.00602646
         1030    0.00602646
         1031    0.00602646
         1032    0.00602646
         1033    0.00602646
         1034    0.00602646
         1035    0.00602646
         1036    0.00602646
         1037    0.00602646
         1038    0.00602646
         1039    0.00602646
         1040    0.00602646
         1041    0.00602646
         1042    0.00602646
         1043    0.00602646
         1044    0.00602646
         1045    0.00602646
         1046    0.00602646
         1047    0.00602646
         1048    0.00602646
         1049    0.00602646
         1050    0.00602646
         1051    0.00602646
         1052    0.00602646
         1053    0.00602646
         1054    0.00602646
         1055    0.00602646
         1056    0.00602646
         1057    0.00602646
         1058    0.00602646
         1059    0.00602646
         1060    0.00602646
         1061    0.00602646
         1062    0.00602646
         1063    0.00602646
         1064    0.00602646
         1065    0.00602646
         1066    0.00602646
         1067    0.00602646
         1068    0.00602646