# Probe 0 (0.05 0.05 0.005)
#       Probe             0
#        Time
            1     0.0123506
            2     0.0123506
            3     0.0123506
            4     0.0123506
            5     0.0123506
            6     0.0123506
            7     0.0123506
            8     0.0123506
            9     0.0123506
           10     0.0123506
           11     0.0123506
           12     0.0123506
           13     0.0123506
           14     0.0123506
           15     0.0123506
           16     0.0123506
           17     0.0123506
           18     0.0123506
           19     0.0123506
           20     0.0123506
           21     0.0123506
           22     0.0123506
           23     0.0123506
           24     0.0123506
           25     0.0123506
           26     0.0123506
           27     0.0123506
           28     0.0123506
           29     0.0123506
           30     0.0123506
           31     0.0123506
           32     0.0123506
           33     0.0123506
           34     0.0123506
           35     0.0123506
           36     0.0123506
           37     0.0123506
           38     0.0123506
           39     0.0123506
           40     0.0123506
           41     0.0123506
           42     0.0123506
           43     0.0123506
           44     0.0123506
           45     0.0123506
           46     0.0123506
           47     0.0123506
           48     0.0123506
           49     0.0123506
           50     0.0123506
           51     0.0123506
           52     0.0123506
           53     0.0123506
           54     0.0123506
           55     0.0123506
           56     0.0123506
           57     0.0123506
           58     0.0123506
           59     0.0123506
           60     0.0123506
           61     0.0123506
           62     0.0123506
           63     0.0123506
           64     0.0123506
           65     0.0123506
           66     0.0123506
           67     0.0123506
           68     0.0123506
           69     0.0123506
           70     0.0123506
           71     0.0123506
           72     0.0123506
           73     0.0123506
           74     0.0123506
           75     0.0123506
           76     0.0123506
           77     0.0123506
           78     0.0123506
           79     0.0123506
           80     0.0123506
           81     0.0123506
           82     0.0123506
           83     0.0123506
           84     0.0123506
           85     0.0123506
           86     0.0123506
           87     0.0123506
           88     0.0123506
           89     0.0123506
           90     0.0123506
           91     0.0123506
           92     0.0123506
           93     0.0123506
           94     0.0123506
           95     0.0123506
           96     0.0123506
           97     0.0123506
           98     0.0123506
           99     0.0123506
          100     0.0123506
          101     0.0123506
          102     0.0123506
          103     0.0123506
          104     0.0123506
          105     0.0123506
          106     0.0123506
          107     0.0123506
          108     0.0123506
          109     0.0123506
          110     0.0123506
          111     0.0123506
          112     0.0123506
          113     0.0123506
          114     0.0123506
          115     0.0123506
          116     0.0123506
          117     0.0123506
          118     0.0123506
          119     0.0123506
          120     0.0123506
          121     0.0123506
          122     0.0123506
          123     0.0123506
          124     0.0123506
          125     0.0123506
          126     0.0123506
          127     0.0123506
          128     0.0123506
          129     0.0123506
          130     0.0123506
          131     0.0123506
          132     0.0123506
          133     0.0123506
          134     0.0123506
          135     0.0123506
          136     0.0123506
          137     0.0123506
          138     0.0123506
          139     0.0123506
          140     0.0123506
          141     0.0123506
          142     0.0123506
          143     0.0123506
          144     0.0123506
          145     0.0123506
          146     0.0123506
          147     0.0123506
          148     0.0123506
          149     0.0123506
          150     0.0123506
          151     0.0123506
          152     0.0123506
          153     0.0123506
          154     0.0123506
          155     0.0123506
          156     0.0123506
          157     0.0123506
          158     0.0123506
          159     0.0123506
          160     0.0123506
          161     0.0123506
          162     0.0123506
          163     0.0123506
          164     0.0123506
          165     0.0123506
          166     0.0123506
          167     0.0123506
          168     0.0123506
          169     0.0123506
          170     0.0123506
          171     0.0123506
          172     0.0123506
          173     0.0123506
          174     0.0123506
          175     0.0123506
          176     0.0123506
          177     0.0123506
          178     0.0123506
          179     0.0123506
          180     0.0123506
          181     0.0123506
          182     0.0123506
          183     0.0123506
          184     0.0123506
          185     0.0123506
          186     0.0123506
          187     0.0123506
          188     0.0123506
          189     0.0123506
          190     0.0123506
          191     0.0123506
          192     0.0123506
          193     0.0123506
          194     0.0123506
          195     0.0123506
          196     0.0123506
          197     0.0123506
          198     0.0123506
          199     0.0123506
          200     0.0123506
          201     0.0123506
          202     0.0123506
          203     0.0123506
          204     0.0123506
          205     0.0123506
          206     0.0123506
          207     0.0123506
          208     0.0123506
          209     0.0123506
          210     0.0123506
          211     0.0123506
          212     0.0123506
          213     0.0123506
          214     0.0123506
          215     0.0123506
          216     0.0123506
          217     0.0123506
          218     0.0123506
          219     0.0123506
          220     0.0123506
          221     0.0123506
          222     0.0123506
          223     0.0123506
          224     0.0123506
          225     0.0123506
          226     0.0123506
          227     0.0123506
          228     0.0123506
          229     0.0123506
          230     0.0123506
          231     0.0123506
          232     0.0123506
          233     0.0123506
          234     0.0123506
          235     0.0123506
          236     0.0123506
          237     0.0123506
          238     0.0123506
          239     0.0123506
          240     0.0123506
          241     0.0123506
          242     0.0123506
          243     0.0123506
          244     0.0123506
          245     0.0123506
          246     0.0123506
          247     0.0123506
          248     0.0123506
          249     0.0123506
          250     0.0123506
          251     0.0123506
          252     0.0123506
          253     0.0123506
          254     0.0123506
          255     0.0123506
          256     0.0123506
          257     0.0123506
          258     0.0123506
          259     0.0123506
          260     0.0123506
          261     0.0123506
          262     0.0123506
          263     0.0123506
          264     0.0123506
          265     0.0123506
          266     0.0123506
          267     0.0123506
          268     0.0123506
          269     0.0123506
          270     0.0123506
          271     0.0123506
          272     0.0123506
          273     0.0123506
          274     0.0123506
          275     0.0123506
          276     0.0123506
          277     0.0123506
          278     0.0123506
          279     0.0123506
          280     0.0123506
          281     0.0123506
          282     0.0123506
          283     0.0123506
          284     0.0123506
          285     0.0123506
          286     0.0123506
          287     0.0123506
          288     0.0123506
          289     0.0123506
          290     0.0123506
          291     0.0123506
          292     0.0123506
          293     0.0123506
          294     0.0123506
          295     0.0123506
          296     0.0123506
          297     0.0123506
          298     0.0123506
          299     0.0123506
          300     0.0123506
          301     0.0123506
          302     0.0123506
          303     0.0123506
          304     0.0123506
          305     0.0123506
          306     0.0123506
          307     0.0123506
          308     0.0123506
          309     0.0123506
          310     0.0123506
          311     0.0123506
          312     0.0123506
          313     0.0123506
          314     0.0123506
          315     0.0123506
          316     0.0123506
          317     0.0123506
          318     0.0123506
          319     0.0123506
          320     0.0123506
          321     0.0123506
          322     0.0123506
          323     0.0123506
          324     0.0123506
          325     0.0123506
          326     0.0123506
          327     0.0123506
          328     0.0123506
          329     0.0123506
          330     0.0123506
          331     0.0123506
          332     0.0123506
          333     0.0123506
          334     0.0123506
          335     0.0123506
          336     0.0123506
          337     0.0123506
          338     0.0123506
          339     0.0123506
          340     0.0123506
          341     0.0123506
          342     0.0123506
          343     0.0123506
          344     0.0123506
          345     0.0123506
          346     0.0123506
          347     0.0123506
          348     0.0123506
          349     0.0123506
          350     0.0123506
          351     0.0123506
          352     0.0123506
          353     0.0123506
          354     0.0123506
          355     0.0123506
          356     0.0123506
          357     0.0123506
          358     0.0123506
          359     0.0123506
          360     0.0123506
          361     0.0123506
          362     0.0123506
          363     0.0123506
          364     0.0123506
          365     0.0123506
          366     0.0123506
          367     0.0123506
          368     0.0123506
          369     0.0123506
          370     0.0123506
          371     0.0123506
          372     0.0123506
          373     0.0123506
          374     0.0123506
          375     0.0123506
          376     0.0123506
          377     0.0123506
          378     0.0123506
          379     0.0123506
          380     0.0123506
          381     0.0123506
          382     0.0123506
          383     0.0123506
          384     0.0123506
          385     0.0123506
          386     0.0123506
          387     0.0123506
          388     0.0123506
          389     0.0123506
          390     0.0123506
          391     0.0123506
          392     0.0123506
          393     0.0123506
          394     0.0123506
          395     0.0123506
          396     0.0123506
          397     0.0123506
          398     0.0123506
          399     0.0123506
          400     0.0123506
          401     0.0123506
          402     0.0123506
          403     0.0123506
          404     0.0123506
          405     0.0123506
          406     0.0123506
          407     0.0123506
          408     0.0123506
          409     0.0123506
          410     0.0123506
          411     0.0123506
          412     0.0123506
          413     0.0123506
          414     0.0123506
          415     0.0123506
          416     0.0123506
          417     0.0123506
          418     0.0123506
          419     0.0123506
          420     0.0123506
          421     0.0123506
          422     0.0123506
          423     0.0123506
          424     0.0123506
          425     0.0123506
          426     0.0123506
          427     0.0123506
          428     0.0123506
          429     0.0123506
          430     0.0123506
          431     0.0123506
          432     0.0123506
          433     0.0123506
          434     0.0123506
          435     0.0123506
          436     0.0123506
          437     0.0123506
          438     0.0123506
          439     0.0123506
          440     0.0123506
          441     0.0123506
          442     0.0123506
          443     0.0123506
          444     0.0123506
          445     0.0123506
          446     0.0123506
          447     0.0123506
          448     0.0123506
          449     0.0123506
          450     0.0123506
          451     0.0123506
          452     0.0123506
          453     0.0123506
          454     0.0123506
          455     0.0123506
          456     0.0123506
          457     0.0123506
          458     0.0123506
          459     0.0123506
          460     0.0123506
          461     0.0123506
          462     0.0123506
          463     0.0123506
          464     0.0123506
          465     0.0123506
          466     0.0123506
          467     0.0123506
          468     0.0123506
          469     0.0123506
          470     0.0123506
          471     0.0123506
          472     0.0123506
          473     0.0123506
          474     0.0123506
          475     0.0123506
          476     0.0123506
          477     0.0123506
          478     0.0123506
          479     0.0123506
          480     0.0123506
          481     0.0123506
          482     0.0123506
          483     0.0123506
          484     0.0123506
          485     0.0123506
          486     0.0123506
          487     0.0123506
          488     0.0123506
          489     0.0123506
          490     0.0123506
          491     0.0123506
          492     0.0123506
          493     0.0123506
          494     0.0123506
          495     0.0123506
          496     0.0123506
          497     0.0123506
          498     0.0123506
          499     0.0123506
          500     0.0123506
          501     0.0123506
          502     0.0123506
          503     0.0123506
          504     0.0123506
          505     0.0123506
          506     0.0123506
          507     0.0123506
          508     0.0123506
          509     0.0123506
          510     0.0123506
          511     0.0123506
          512     0.0123506
          513     0.0123506
          514     0.0123506
          515     0.0123506
          516     0.0123506
          517     0.0123506
          518     0.0123506
          519     0.0123506
          520     0.0123506
          521     0.0123506
          522     0.0123506
          523     0.0123506
          524     0.0123506
          525     0.0123506
          526     0.0123506
          527     0.0123506
          528     0.0123506
          529     0.0123506
          530     0.0123506
          531     0.0123506
          532     0.0123506
          533     0.0123506
          534     0.0123506
          535     0.0123506
          536     0.0123506
          537     0.0123506
          538     0.0123506
          539     0.0123506
          540     0.0123506
          541     0.0123506
          542     0.0123506
          543     0.0123506
          544     0.0123506
          545     0.0123506
          546     0.0123506
          547     0.0123506
          548     0.0123506
          549     0.0123506
          550     0.0123506
          551     0.0123506
          552     0.0123506
          553     0.0123506
          554     0.0123506
          555     0.0123506
          556     0.0123506
          557     0.0123506
          558     0.0123506
          559     0.0123506
          560     0.0123506
          561     0.0123506
          562     0.0123506
          563     0.0123506
          564     0.0123506
          565     0.0123506
          566     0.0123506
          567     0.0123506
          568     0.0123506
          569     0.0123506
          570     0.0123506
          571     0.0123506
          572     0.0123506
          573     0.0123506
          574     0.0123506
          575     0.0123506
          576     0.0123506
          577     0.0123506
          578     0.0123506
          579     0.0123506
          580     0.0123506
          581     0.0123506
          582     0.0123506
          583     0.0123506
          584     0.0123506
          585     0.0123506
          586     0.0123506
          587     0.0123506
          588     0.0123506
          589     0.0123506
          590     0.0123506
          591     0.0123506
          592     0.0123506
          593     0.0123506
          594     0.0123506
          595     0.0123506
          596     0.0123506
          597     0.0123506
          598     0.0123506
          599     0.0123506
          600     0.0123506
          601     0.0123506
          602     0.0123506
          603     0.0123506
          604     0.0123506
          605     0.0123506
          606     0.0123506
          607     0.0123506
          608     0.0123506
          609     0.0123506
          610     0.0123506
          611     0.0123506
          612     0.0123506
          613     0.0123506
          614     0.0123506
          615     0.0123506
          616     0.0123506
          617     0.0123506
          618     0.0123506
          619     0.0123506
          620     0.0123506
          621     0.0123506
          622     0.0123505
          623     0.0123505
          624     0.0123505
          625     0.0123505
          626     0.0123505
          627     0.0123505
          628     0.0123505
          629     0.0123505
          630     0.0123505
          631     0.0123505
          632     0.0123505
          633     0.0123505
          634     0.0123505
          635     0.0123505
          636     0.0123505
          637     0.0123505
          638     0.0123505
          639     0.0123505
          640     0.0123505
          641     0.0123505
          642     0.0123505
          643     0.0123505
          644     0.0123505
          645     0.0123505
          646     0.0123505
          647     0.0123505
          648     0.0123505
          649     0.0123505
          650     0.0123505
          651     0.0123505
          652     0.0123505
          653     0.0123505
          654     0.0123505
          655     0.0123505
          656     0.0123505
          657     0.0123505
          658     0.0123505
          659     0.0123505
          660     0.0123505
          661     0.0123505
          662     0.0123505
          663     0.0123505
          664     0.0123505
          665     0.0123505
          666     0.0123505
          667     0.0123505
          668     0.0123505
          669     0.0123505
          670     0.0123505
          671     0.0123505
          672     0.0123505
          673     0.0123505
          674     0.0123505
          675     0.0123505
          676     0.0123505
          677     0.0123505
          678     0.0123505
          679     0.0123505
          680     0.0123505
          681     0.0123505
          682     0.0123505
          683     0.0123505
          684     0.0123505
          685     0.0123505
          686     0.0123505
          687     0.0123505
          688     0.0123505
          689     0.0123505
          690     0.0123505
          691     0.0123505
          692     0.0123505
          693     0.0123505
          694     0.0123505
          695     0.0123505
          696     0.0123505
          697     0.0123505
          698     0.0123505
          699     0.0123505
          700     0.0123505
          701     0.0123505
          702     0.0123505
          703     0.0123505
          704     0.0123505
          705     0.0123505
          706     0.0123505
          707     0.0123505
          708     0.0123505
          709     0.0123505
          710     0.0123505
          711     0.0123505
          712     0.0123505
          713     0.0123505
          714     0.0123505
          715     0.0123505
          716     0.0123505
          717     0.0123505
          718     0.0123505
          719     0.0123505
          720     0.0123505
          721     0.0123505
          722     0.0123505
          723     0.0123505
          724     0.0123505
          725     0.0123505
          726     0.0123505
          727     0.0123505
          728     0.0123505
          729     0.0123505
          730     0.0123505
          731     0.0123505
          732     0.0123505
          733     0.0123505
          734     0.0123505
          735     0.0123505
          736     0.0123505
          737     0.0123505
          738     0.0123505
          739     0.0123505
          740     0.0123505
          741     0.0123505
          742     0.0123505
          743     0.0123505
          744     0.0123505
          745     0.0123505
          746     0.0123505
          747     0.0123505
          748     0.0123505
          749     0.0123505
          750     0.0123505
          751     0.0123505
          752     0.0123505
          753     0.0123505
          754     0.0123505
          755     0.0123505
          756     0.0123505
          757     0.0123505
          758     0.0123505
          759     0.0123505
          760     0.0123505
          761     0.0123505
          762     0.0123505
          763     0.0123505
          764     0.0123505
          765     0.0123505
          766     0.0123505
          767     0.0123505
          768     0.0123505
          769     0.0123505
          770     0.0123505
          771     0.0123505
          772     0.0123505
          773     0.0123505
          774     0.0123505
          775     0.0123505
          776     0.0123505
          777     0.0123505
          778     0.0123505
          779     0.0123505
          780     0.0123505
          781     0.0123505
          782     0.0123505
          783     0.0123505
          784     0.0123505
          785     0.0123505
          786     0.0123505
          787     0.0123505
          788     0.0123505
          789     0.0123505
          790     0.0123505
          791     0.0123505
          792     0.0123505
          793     0.0123505
          794     0.0123505
          795     0.0123505
          796     0.0123505
          797     0.0123505
          798     0.0123505
          799     0.0123505
          800     0.0123505
          801     0.0123505
          802     0.0123505
          803     0.0123505
          804     0.0123505
          805     0.0123505
          806     0.0123505
          807     0.0123505
          808     0.0123505
          809     0.0123505
          810     0.0123505
          811     0.0123505
          812     0.0123505
          813     0.0123505
          814     0.0123505
          815     0.0123505
          816     0.0123505
          817     0.0123505
          818     0.0123505
          819     0.0123505
          820     0.0123505
          821     0.0123505
          822     0.0123505
          823     0.0123505
          824     0.0123505
          825     0.0123505
          826     0.0123505
          827     0.0123505
          828     0.0123505
          829     0.0123505
          830     0.0123505
          831     0.0123505
          832     0.0123505
          833     0.0123505
          834     0.0123505
          835     0.0123505
          836     0.0123505
          837     0.0123505
          838     0.0123505
          839     0.0123505
          840     0.0123505
          841     0.0123505
          842     0.0123505
          843     0.0123505
          844     0.0123505
          845     0.0123505
          846     0.0123505
          847     0.0123505
          848     0.0123505
          849     0.0123505
          850     0.0123505
          851     0.0123505
          852     0.0123505
          853     0.0123505
          854     0.0123505
          855     0.0123505
          856     0.0123505
          857     0.0123505
          858     0.0123505
          859     0.0123505
          860     0.0123505
          861     0.0123505
          862     0.0123505
          863     0.0123505
          864     0.0123505
          865     0.0123505
          866     0.0123505
          867     0.0123505
          868     0.0123505
          869     0.0123505
          870     0.0123505
          871     0.0123505
          872     0.0123505
          873     0.0123505
          874     0.0123505
          875     0.0123505
          876     0.0123505
          877     0.0123505
          878     0.0123505
          879     0.0123505
          880     0.0123505
          881     0.0123505
          882     0.0123505
          883     0.0123505
          884     0.0123505
          885     0.0123505
          886     0.0123505
          887     0.0123505
          888     0.0123505
          889     0.0123505
          890     0.0123505
          891     0.0123505
          892     0.0123505
          893     0.0123505
          894     0.0123505
          895     0.0123505
          896     0.0123505
          897     0.0123505
          898     0.0123505
          899     0.0123505
          900     0.0123505
          901     0.0123505
          902     0.0123505
          903     0.0123505
          904     0.0123505
          905     0.0123505
          906     0.0123505
          907     0.0123505
          908     0.0123505
          909     0.0123505
          910     0.0123505
          911     0.0123505
          912     0.0123505
          913     0.0123505
          914     0.0123505
          915     0.0123505
          916     0.0123505
          917     0.0123505
          918     0.0123505
          919     0.0123505
          920     0.0123505
          921     0.0123505
          922     0.0123505
          923     0.0123505
          924     0.0123505
          925     0.0123505
          926     0.0123505
          927     0.0123505
          928     0.0123505
          929     0.0123505
          930     0.0123505
          931     0.0123505
          932     0.0123505
          933     0.0123505
          934     0.0123505
          935     0.0123505
          936     0.0123505
          937     0.0123505
          938     0.0123505
          939     0.0123505
          940     0.0123505
          941     0.0123505
          942     0.0123505
          943     0.0123505
          944     0.0123505
          945     0.0123505
          946     0.0123505
          947     0.0123505
          948     0.0123505
          949     0.0123505
          950     0.0123505
          951     0.0123505
          952     0.0123505
          953     0.0123505
          954     0.0123505
          955     0.0123505
          956     0.0123505
          957     0.0123505
          958     0.0123505
          959     0.0123505
          960     0.0123505
          961     0.0123505
          962     0.0123505
          963     0.0123505
          964     0.0123505
          965     0.0123505
          966     0.0123505
          967     0.0123505
          968     0.0123505
          969     0.0123505
          970     0.0123505
          971     0.0123505
          972     0.0123505
          973     0.0123505
          974     0.0123505
          975     0.0123505
          976     0.0123505
          977     0.0123505
          978     0.0123505
          979     0.0123505
          980     0.0123505
          981     0.0123505
          982     0.0123505
          983     0.0123505
          984     0.0123505
          985     0.0123505
          986     0.0123505
          987     0.0123505
          988     0.0123505
          989     0.0123505
          990     0.0123505
          991     0.0123505
          992     0.0123505
          993     0.0123505
          994     0.0123505
          995     0.0123505
          996     0.0123505
          997     0.0123505
          998     0.0123505
          999     0.0123505
         1000     0.0123505
         1001     0.0123505
         1002     0.0123505
         1003     0.0123505
         1004     0.0123505
         1005     0.0123505
         1006     0.0123505
         1007     0.0123505
         1008     0.0123505
         1009     0.0123505
         1010     0.0123505
         1011     0.0123505
         1012     0.0123505
         1013     0.0123505
         1014     0.0123505
         1015     0.0123505
         1016     0.0123505
         1017     0.0123505
         1018     0.0123505
         1019     0.0123505
         1020     0.0123505
         1021     0.0123505
         1022     0.0123505
         1023     0.0123505
         1024     0.0123505
         1025     0.0123505
         1026     0.0123505
         1027     0.0123505
         1028     0.0123505
         1029     0.0123505
         1030     0.0123505
         1031     0.0123505
         1032     0.0123505
         1033     0.0123505
         1034     0.0123505
         1035     0.0123505
         1036     0.0123505
         1037     0.0123505
         1038     0.0123505
         1039     0.0123505
         1040     0.0123505
         1041     0.0123505
         1042     0.0123505
         1043     0.0123505
         1044     0.0123505
         1045     0.0123505
         1046     0.0123505
         1047     0.0123505
         1048     0.0123505
         1049     0.0123505
         1050     0.0123505
         1051     0.0123505
         1052     0.0123505
         1053     0.0123505
         1054     0.0123505
         1055     0.0123505
         1056     0.0123505
         1057     0.0123505
         1058     0.0123505
         1059     0.0123505
         1060     0.0123505
         1061     0.0123505
         1062     0.0123505
         1063     0.0123505
         1064     0.0123505
         1065     0.0123505
         1066     0.0123505
         1067     0.0123505
         1068     0.0123505