# Probe 0 (0.05 0.05 0.005)
#       Probe             0
#        Time
            1   1.08094e-05
            2   1.08094e-05
            3   1.08094e-05
            4   1.08094e-05
            5   1.08094e-05
            6   1.08094e-05
            7   1.08094e-05
            8   1.08094e-05
            9   1.08094e-05
           10   1.08094e-05
           11   1.08094e-05
           12   1.08094e-05
           13   1.08094e-05
           14   1.08094e-05
           15   1.08094e-05
           16   1.08094e-05
           17   1.08094e-05
           18   1.08094e-05
           19   1.08094e-05
           20   1.08094e-05
           21   1.08094e-05
           22   1.08094e-05
           23   1.08094e-05
           24   1.08094e-05
           25   1.08094e-05
           26   1.08094e-05
           27   1.08094e-05
           28   1.08094e-05
           29   1.08094e-05
           30   1.08094e-05
           31   1.08094e-05
           32   1.08094e-05
           33   1.08094e-05
           34   1.08094e-05
           35   1.08094e-05
           36   1.08094e-05
           37   1.08094e-05
           38   1.08094e-05
           39   1.08094e-05
           40   1.08094e-05
           41   1.08094e-05
           42   1.08094e-05
           43   1.08094e-05
           44   1.08094e-05
           45   1.08094e-05
           46   1.08094e-05
           47   1.08094e-05
           48   1.08094e-05
           49   1.08094e-05
           50   1.08094e-05
           51   1.08094e-05
           52   1.08094e-05
           53   1.08094e-05
           54   1.08094e-05
           55   1.08094e-05
           56   1.08094e-05
           57   1.08094e-05
           58   1.08094e-05
           59   1.08094e-05
           60   1.08094e-05
           61   1.08094e-05
           62   1.08094e-05
           63   1.08094e-05
           64   1.08094e-05
           65   1.08094e-05
           66   1.08094e-05
           67   1.08094e-05
           68   1.08094e-05
           69   1.08094e-05
           70   1.08094e-05
           71   1.08094e-05
           72   1.08094e-05
           73   1.08094e-05
           74   1.08094e-05
           75   1.08094e-05
           76   1.08094e-05
           77   1.08094e-05
           78   1.08094e-05
           79   1.08094e-05
           80   1.08094e-05
           81   1.08094e-05
           82   1.08094e-05
           83   1.08094e-05
           84   1.08094e-05
           85   1.08094e-05
           86   1.08094e-05
           87   1.08094e-05
           88   1.08094e-05
           89   1.08094e-05
           90   1.08094e-05
           91   1.08094e-05
           92   1.08094e-05
           93   1.08094e-05
           94   1.08094e-05
           95   1.08094e-05
           96   1.08094e-05
           97   1.08094e-05
           98   1.08094e-05
           99   1.08094e-05
          100   1.08094e-05
          101   1.08094e-05
          102   1.08094e-05
          103   1.08094e-05
          104   1.08094e-05
          105   1.08094e-05
          106   1.08094e-05
          107   1.08094e-05
          108   1.08094e-05
          109   1.08094e-05
          110   1.08094e-05
          111   1.08094e-05
          112   1.08094e-05
          113   1.08094e-05
          114   1.08094e-05
          115   1.08094e-05
          116   1.08094e-05
          117   1.08094e-05
          118   1.08094e-05
          119   1.08094e-05
          120   1.08094e-05
          121   1.08094e-05
          122   1.08094e-05
          123   1.08094e-05
          124   1.08094e-05
          125   1.08094e-05
          126   1.08094e-05
          127   1.08094e-05
          128   1.08094e-05
          129   1.08094e-05
          130   1.08094e-05
          131   1.08094e-05
          132   1.08094e-05
          133   1.08094e-05
          134   1.08094e-05
          135   1.08094e-05
          136   1.08094e-05
          137   1.08094e-05
          138   1.08094e-05
          139   1.08094e-05
          140   1.08094e-05
          141   1.08094e-05
          142   1.08094e-05
          143   1.08094e-05
          144   1.08094e-05
          145   1.08094e-05
          146   1.08094e-05
          147   1.08094e-05
          148   1.08094e-05
          149   1.08094e-05
          150   1.08094e-05
          151   1.08094e-05
          152   1.08094e-05
          153   1.08094e-05
          154   1.08094e-05
          155   1.08094e-05
          156   1.08094e-05
          157   1.08094e-05
          158   1.08094e-05
          159   1.08094e-05
          160   1.08094e-05
          161   1.08094e-05
          162   1.08094e-05
          163   1.08094e-05
          164   1.08094e-05
          165   1.08094e-05
          166   1.08094e-05
          167   1.08094e-05
          168   1.08094e-05
          169   1.08094e-05
          170   1.08094e-05
          171   1.08094e-05
          172   1.08094e-05
          173   1.08094e-05
          174   1.08094e-05
          175   1.08094e-05
          176   1.08094e-05
          177   1.08094e-05
          178   1.08094e-05
          179   1.08094e-05
          180   1.08094e-05
          181   1.08094e-05
          182   1.08094e-05
          183   1.08094e-05
          184   1.08094e-05
          185   1.08094e-05
          186   1.08094e-05
          187   1.08094e-05
          188   1.08094e-05
          189   1.08094e-05
          190   1.08094e-05
          191   1.08094e-05
          192   1.08094e-05
          193   1.08094e-05
          194   1.08094e-05
          195   1.08094e-05
          196   1.08094e-05
          197   1.08094e-05
          198   1.08094e-05
          199   1.08094e-05
          200   1.08094e-05
          201   1.08094e-05
          202   1.08094e-05
          203   1.08094e-05
          204   1.08094e-05
          205   1.08094e-05
          206   1.08094e-05
          207   1.08094e-05
          208   1.08094e-05
          209   1.08094e-05
          210   1.08094e-05
          211   1.08094e-05
          212   1.08094e-05
          213   1.08094e-05
          214   1.08094e-05
          215   1.08094e-05
          216   1.08094e-05
          217   1.08094e-05
          218   1.08094e-05
          219   1.08094e-05
          220   1.08094e-05
          221   1.08094e-05
          222   1.08094e-05
          223   1.08094e-05
          224   1.08094e-05
          225   1.08094e-05
          226   1.08094e-05
          227   1.08094e-05
          228   1.08094e-05
          229   1.08094e-05
          230   1.08094e-05
          231   1.08094e-05
          232   1.08094e-05
          233   1.08094e-05
          234   1.08094e-05
          235   1.08094e-05
          236   1.08094e-05
          237   1.08094e-05
          238   1.08094e-05
          239   1.08094e-05
          240   1.08094e-05
          241   1.08094e-05
          242   1.08094e-05
          243   1.08094e-05
          244   1.08094e-05
          245   1.08094e-05
          246   1.08094e-05
          247   1.08094e-05
          248   1.08094e-05
          249   1.08094e-05
          250   1.08094e-05
          251   1.08094e-05
          252   1.08094e-05
          253   1.08094e-05
          254   1.08094e-05
          255   1.08094e-05
          256   1.08094e-05
          257   1.08094e-05
          258   1.08094e-05
          259   1.08094e-05
          260   1.08094e-05
          261   1.08094e-05
          262   1.08094e-05
          263   1.08094e-05
          264   1.08094e-05
          265   1.08094e-05
          266   1.08094e-05
          267   1.08094e-05
          268   1.08094e-05
          269   1.08094e-05
          270   1.08094e-05
          271   1.08094e-05
          272   1.08094e-05
          273   1.08094e-05
          274   1.08094e-05
          275   1.08094e-05
          276   1.08094e-05
          277   1.08094e-05
          278   1.08094e-05
          279   1.08094e-05
          280   1.08094e-05
          281   1.08094e-05
          282   1.08094e-05
          283   1.08094e-05
          284   1.08094e-05
          285   1.08094e-05
          286   1.08094e-05
          287   1.08094e-05
          288   1.08094e-05
          289   1.08094e-05
          290   1.08094e-05
          291   1.08094e-05
          292   1.08094e-05
          293   1.08094e-05
          294   1.08094e-05
          295   1.08094e-05
          296   1.08094e-05
          297   1.08094e-05
          298   1.08094e-05
          299   1.08094e-05
          300   1.08094e-05
          301   1.08094e-05
          302   1.08094e-05
          303   1.08094e-05
          304   1.08094e-05
          305   1.08094e-05
          306   1.08094e-05
          307   1.08094e-05
          308   1.08094e-05
          309   1.08094e-05
          310   1.08094e-05
          311   1.08094e-05
          312   1.08094e-05
          313   1.08094e-05
          314   1.08094e-05
          315   1.08094e-05
          316   1.08094e-05
          317   1.08094e-05
          318   1.08094e-05
          319   1.08094e-05
          320   1.08094e-05
          321   1.08094e-05
          322   1.08094e-05
          323   1.08094e-05
          324   1.08094e-05
          325   1.08094e-05
          326   1.08094e-05
          327   1.08094e-05
          328   1.08094e-05
          329   1.08094e-05
          330   1.08094e-05
          331   1.08094e-05
          332   1.08094e-05
          333   1.08094e-05
          334   1.08094e-05
          335   1.08094e-05
          336   1.08094e-05
          337   1.08094e-05
          338   1.08094e-05
          339   1.08094e-05
          340   1.08094e-05
          341   1.08094e-05
          342   1.08094e-05
          343   1.08094e-05
          344   1.08094e-05
          345   1.08094e-05
          346   1.08094e-05
          347   1.08094e-05
          348   1.08094e-05
          349   1.08094e-05
          350   1.08094e-05
          351   1.08094e-05
          352   1.08094e-05
          353   1.08094e-05
          354   1.08094e-05
          355   1.08094e-05
          356   1.08094e-05
          357   1.08094e-05
          358   1.08094e-05
          359   1.08094e-05
          360   1.08094e-05
          361   1.08094e-05
          362   1.08094e-05
          363   1.08094e-05
          364   1.08094e-05
          365   1.08094e-05
          366   1.08094e-05
          367   1.08094e-05
          368   1.08094e-05
          369   1.08094e-05
          370   1.08094e-05
          371   1.08094e-05
          372   1.08094e-05
          373   1.08094e-05
          374   1.08094e-05
          375   1.08094e-05
          376   1.08094e-05
          377   1.08094e-05
          378   1.08094e-05
          379   1.08094e-05
          380   1.08094e-05
          381   1.08094e-05
          382   1.08094e-05
          383   1.08094e-05
          384   1.08094e-05
          385   1.08094e-05
          386   1.08094e-05
          387   1.08094e-05
          388   1.08094e-05
          389   1.08094e-05
          390   1.08094e-05
          391   1.08094e-05
          392   1.08094e-05
          393   1.08094e-05
          394   1.08094e-05
          395   1.08094e-05
          396   1.08094e-05
          397   1.08094e-05
          398   1.08094e-05
          399   1.08094e-05
          400   1.08094e-05
          401   1.08094e-05
          402   1.08094e-05
          403   1.08094e-05
          404   1.08094e-05
          405   1.08094e-05
          406   1.08094e-05
          407   1.08094e-05
          408   1.08094e-05
          409   1.08094e-05
          410   1.08094e-05
          411   1.08094e-05
          412   1.08094e-05
          413   1.08094e-05
          414   1.08094e-05
          415   1.08094e-05
          416   1.08094e-05
          417   1.08094e-05
          418   1.08094e-05
          419   1.08094e-05
          420   1.08094e-05
          421   1.08094e-05
          422   1.08094e-05
          423   1.08094e-05
          424   1.08094e-05
          425   1.08094e-05
          426   1.08094e-05
          427   1.08094e-05
          428   1.08094e-05
          429   1.08094e-05
          430   1.08094e-05
          431   1.08094e-05
          432   1.08094e-05
          433   1.08094e-05
          434   1.08094e-05
          435   1.08094e-05
          436   1.08094e-05
          437   1.08094e-05
          438   1.08094e-05
          439   1.08094e-05
          440   1.08094e-05
          441   1.08094e-05
          442   1.08094e-05
          443   1.08094e-05
          444   1.08094e-05
          445   1.08094e-05
          446   1.08094e-05
          447   1.08094e-05
          448   1.08094e-05
          449   1.08094e-05
          450   1.08094e-05
          451   1.08094e-05
          452   1.08094e-05
          453   1.08094e-05
          454   1.08094e-05
          455   1.08094e-05
          456   1.08094e-05
          457   1.08094e-05
          458   1.08094e-05
          459   1.08094e-05
          460   1.08094e-05
          461   1.08094e-05
          462   1.08094e-05
          463   1.08094e-05
          464   1.08094e-05
          465   1.08094e-05
          466   1.08094e-05
          467   1.08094e-05
          468   1.08094e-05
          469   1.08094e-05
          470   1.08094e-05
          471   1.08094e-05
          472   1.08094e-05
          473   1.08094e-05
          474   1.08094e-05
          475   1.08094e-05
          476   1.08094e-05
          477   1.08094e-05
          478   1.08094e-05
          479   1.08094e-05
          480   1.08094e-05
          481   1.08094e-05
          482   1.08094e-05
          483   1.08094e-05
          484   1.08094e-05
          485   1.08094e-05
          486   1.08094e-05
          487   1.08094e-05
          488   1.08094e-05
          489   1.08094e-05
          490   1.08094e-05
          491   1.08094e-05
          492   1.08094e-05
          493   1.08094e-05
          494   1.08094e-05
          495   1.08094e-05
          496   1.08094e-05
          497   1.08094e-05
          498   1.08094e-05
          499   1.08094e-05
          500   1.08094e-05
          501   1.08094e-05
          502   1.08094e-05
          503   1.08094e-05
          504   1.08094e-05
          505   1.08094e-05
          506   1.08094e-05
          507   1.08094e-05
          508   1.08094e-05
          509   1.08094e-05
          510   1.08094e-05
          511   1.08094e-05
          512   1.08094e-05
          513   1.08094e-05
          514   1.08094e-05
          515   1.08094e-05
          516   1.08094e-05
          517   1.08094e-05
          518   1.08094e-05
          519   1.08094e-05
          520   1.08094e-05
          521   1.08094e-05
          522   1.08094e-05
          523   1.08094e-05
          524   1.08094e-05
          525   1.08094e-05
          526   1.08094e-05
          527   1.08094e-05
          528   1.08094e-05
          529   1.08094e-05
          530   1.08094e-05
          531   1.08094e-05
          532   1.08094e-05
          533   1.08094e-05
          534   1.08094e-05
          535   1.08094e-05
          536   1.08094e-05
          537   1.08094e-05
          538   1.08094e-05
          539   1.08094e-05
          540   1.08094e-05
          541   1.08094e-05
          542   1.08094e-05
          543   1.08094e-05
          544   1.08094e-05
          545   1.08094e-05
          546   1.08094e-05
          547   1.08094e-05
          548   1.08094e-05
          549   1.08094e-05
          550   1.08094e-05
          551   1.08094e-05
          552   1.08094e-05
          553   1.08094e-05
          554   1.08094e-05
          555   1.08094e-05
          556   1.08094e-05
          557   1.08094e-05
          558   1.08094e-05
          559   1.08094e-05
          560   1.08094e-05
          561   1.08094e-05
          562   1.08094e-05
          563   1.08094e-05
          564   1.08094e-05
          565   1.08094e-05
          566   1.08094e-05
          567   1.08094e-05
          568   1.08094e-05
          569   1.08094e-05
          570   1.08094e-05
          571   1.08094e-05
          572   1.08094e-05
          573   1.08094e-05
          574   1.08094e-05
          575   1.08094e-05
          576   1.08094e-05
          577   1.08094e-05
          578   1.08094e-05
          579   1.08094e-05
          580   1.08094e-05
          581   1.08094e-05
          582   1.08094e-05
          583   1.08094e-05
          584   1.08094e-05
          585   1.08094e-05
          586   1.08094e-05
          587   1.08094e-05
          588   1.08094e-05
          589   1.08094e-05
          590   1.08094e-05
          591   1.08094e-05
          592   1.08094e-05
          593   1.08094e-05
          594   1.08094e-05
          595   1.08094e-05
          596   1.08094e-05
          597   1.08094e-05
          598   1.08094e-05
          599   1.08094e-05
          600   1.08094e-05
          601   1.08094e-05
          602   1.08094e-05
          603   1.08094e-05
          604   1.08094e-05
          605   1.08094e-05
          606   1.08094e-05
          607   1.08094e-05
          608   1.08094e-05
          609   1.08094e-05
          610   1.08094e-05
          611   1.08094e-05
          612   1.08094e-05
          613   1.08094e-05
          614   1.08094e-05
          615   1.08094e-05
          616   1.08094e-05
          617   1.08094e-05
          618   1.08094e-05
          619   1.08094e-05
          620   1.08094e-05
          621   1.08094e-05
          622   1.08094e-05
          623   1.08094e-05
          624   1.08094e-05
          625   1.08094e-05
          626   1.08094e-05
          627   1.08094e-05
          628   1.08094e-05
          629   1.08094e-05
          630   1.08094e-05
          631   1.08094e-05
          632   1.08094e-05
          633   1.08094e-05
          634   1.08094e-05
          635   1.08094e-05
          636   1.08094e-05
          637   1.08094e-05
          638   1.08094e-05
          639   1.08094e-05
          640   1.08094e-05
          641   1.08094e-05
          642   1.08094e-05
          643   1.08094e-05
          644   1.08094e-05
          645   1.08094e-05
          646   1.08094e-05
          647   1.08094e-05
          648   1.08094e-05
          649   1.08094e-05
          650   1.08094e-05
          651   1.08094e-05
          652   1.08094e-05
          653   1.08094e-05
          654   1.08094e-05
          655   1.08094e-05
          656   1.08094e-05
          657   1.08094e-05
          658   1.08094e-05
          659   1.08094e-05
          660   1.08094e-05
          661   1.08094e-05
          662   1.08094e-05
          663   1.08094e-05
          664   1.08094e-05
          665   1.08094e-05
          666   1.08094e-05
          667   1.08094e-05
          668   1.08094e-05
          669   1.08094e-05
          670   1.08094e-05
          671   1.08094e-05
          672   1.08094e-05
          673   1.08094e-05
          674   1.08094e-05
          675   1.08094e-05
          676   1.08094e-05
          677   1.08094e-05
          678   1.08094e-05
          679   1.08094e-05
          680   1.08094e-05
          681   1.08094e-05
          682   1.08094e-05
          683   1.08094e-05
          684   1.08094e-05
          685   1.08094e-05
          686   1.08094e-05
          687   1.08094e-05
          688   1.08094e-05
          689   1.08094e-05
          690   1.08094e-05
          691   1.08094e-05
          692   1.08094e-05
          693   1.08094e-05
          694   1.08094e-05
          695   1.08094e-05
          696   1.08094e-05
          697   1.08094e-05
          698   1.08094e-05
          699   1.08094e-05
          700   1.08094e-05
          701   1.08094e-05
          702   1.08094e-05
          703   1.08094e-05
          704   1.08094e-05
          705   1.08094e-05
          706   1.08094e-05
          707   1.08094e-05
          708   1.08094e-05
          709   1.08094e-05
          710   1.08094e-05
          711   1.08094e-05
          712   1.08094e-05
          713   1.08094e-05
          714   1.08094e-05
          715   1.08094e-05
          716   1.08094e-05
          717   1.08094e-05
          718   1.08094e-05
          719   1.08094e-05
          720   1.08094e-05
          721   1.08094e-05
          722   1.08094e-05
          723   1.08094e-05
          724   1.08094e-05
          725   1.08094e-05
          726   1.08094e-05
          727   1.08094e-05
          728   1.08094e-05
          729   1.08094e-05
          730   1.08094e-05
          731   1.08094e-05
          732   1.08094e-05
          733   1.08094e-05
          734   1.08094e-05
          735   1.08094e-05
          736   1.08094e-05
          737   1.08094e-05
          738   1.08094e-05
          739   1.08094e-05
          740   1.08094e-05
          741   1.08094e-05
          742   1.08094e-05
          743   1.08094e-05
          744   1.08094e-05
          745   1.08094e-05
          746   1.08094e-05
          747   1.08094e-05
          748   1.08094e-05
          749   1.08094e-05
          750   1.08094e-05
          751   1.08094e-05
          752   1.08094e-05
          753   1.08094e-05
          754   1.08094e-05
          755   1.08094e-05
          756   1.08094e-05
          757   1.08094e-05
          758   1.08094e-05
          759   1.08094e-05
          760   1.08094e-05
          761   1.08094e-05
          762   1.08094e-05
          763   1.08094e-05
          764   1.08094e-05
          765   1.08094e-05
          766   1.08094e-05
          767   1.08094e-05
          768   1.08094e-05
          769   1.08094e-05
          770   1.08094e-05
          771   1.08094e-05
          772   1.08094e-05
          773   1.08094e-05
          774   1.08094e-05
          775   1.08094e-05
          776   1.08094e-05
          777   1.08094e-05
          778   1.08094e-05
          779   1.08094e-05
          780   1.08094e-05
          781   1.08094e-05
          782   1.08094e-05
          783   1.08094e-05
          784   1.08094e-05
          785   1.08094e-05
          786   1.08094e-05
          787   1.08094e-05
          788   1.08094e-05
          789   1.08094e-05
          790   1.08094e-05
          791   1.08094e-05
          792   1.08094e-05
          793   1.08094e-05
          794   1.08094e-05
          795   1.08094e-05
          796   1.08094e-05
          797   1.08094e-05
          798   1.08094e-05
          799   1.08094e-05
          800   1.08094e-05
          801   1.08094e-05
          802   1.08094e-05
          803   1.08094e-05
          804   1.08094e-05
          805   1.08094e-05
          806   1.08094e-05
          807   1.08094e-05
          808   1.08094e-05
          809   1.08094e-05
          810   1.08094e-05
          811   1.08094e-05
          812   1.08094e-05
          813   1.08094e-05
          814   1.08094e-05
          815   1.08094e-05
          816   1.08094e-05
          817   1.08094e-05
          818   1.08094e-05
          819   1.08094e-05
          820   1.08094e-05
          821   1.08094e-05
          822   1.08094e-05
          823   1.08094e-05
          824   1.08094e-05
          825   1.08094e-05
          826   1.08094e-05
          827   1.08094e-05
          828   1.08094e-05
          829   1.08094e-05
          830   1.08094e-05
          831   1.08094e-05
          832   1.08094e-05
          833   1.08094e-05
          834   1.08094e-05
          835   1.08094e-05
          836   1.08094e-05
          837   1.08094e-05
          838   1.08094e-05
          839   1.08094e-05
          840   1.08094e-05
          841   1.08094e-05
          842   1.08094e-05
          843   1.08094e-05
          844   1.08094e-05
          845   1.08094e-05
          846   1.08094e-05
          847   1.08094e-05
          848   1.08094e-05
          849   1.08094e-05
          850   1.08094e-05
          851   1.08094e-05
          852   1.08094e-05
          853   1.08094e-05
          854   1.08094e-05
          855   1.08094e-05
          856   1.08094e-05
          857   1.08094e-05
          858   1.08094e-05
          859   1.08094e-05
          860   1.08094e-05
          861   1.08094e-05
          862   1.08094e-05
          863   1.08094e-05
          864   1.08094e-05
          865   1.08094e-05
          866   1.08094e-05
          867   1.08094e-05
          868   1.08094e-05
          869   1.08094e-05
          870   1.08094e-05
          871   1.08094e-05
          872   1.08094e-05
          873   1.08094e-05
          874   1.08094e-05
          875   1.08094e-05
          876   1.08094e-05
          877   1.08094e-05
          878   1.08094e-05
          879   1.08094e-05
          880   1.08094e-05
          881   1.08094e-05
          882   1.08094e-05
          883   1.08094e-05
          884   1.08094e-05
          885   1.08094e-05
          886   1.08094e-05
          887   1.08094e-05
          888   1.08094e-05
          889   1.08094e-05
          890   1.08094e-05
          891   1.08094e-05
          892   1.08094e-05
          893   1.08094e-05
          894   1.08094e-05
          895   1.08094e-05
          896   1.08094e-05
          897   1.08094e-05
          898   1.08094e-05
          899   1.08094e-05
          900   1.08094e-05
          901   1.08094e-05
          902   1.08094e-05
          903   1.08094e-05
          904   1.08094e-05
          905   1.08094e-05
          906   1.08094e-05
          907   1.08094e-05
          908   1.08094e-05
          909   1.08094e-05
          910   1.08094e-05
          911   1.08094e-05
          912   1.08094e-05
          913   1.08094e-05
          914   1.08094e-05
          915   1.08094e-05
          916   1.08094e-05
          917   1.08094e-05
          918   1.08094e-05
          919   1.08094e-05
          920   1.08094e-05
          921   1.08094e-05
          922   1.08094e-05
          923   1.08094e-05
          924   1.08094e-05
          925   1.08094e-05
          926   1.08094e-05
          927   1.08094e-05
          928   1.08094e-05
          929   1.08094e-05
          930   1.08094e-05
          931   1.08094e-05
          932   1.08094e-05
          933   1.08094e-05
          934   1.08094e-05
          935   1.08094e-05
          936   1.08094e-05
          937   1.08094e-05
          938   1.08094e-05
          939   1.08094e-05
          940   1.08094e-05
          941   1.08094e-05
          942   1.08094e-05
          943   1.08094e-05
          944   1.08094e-05
          945   1.08094e-05
          946   1.08094e-05
          947   1.08094e-05
          948   1.08094e-05
          949   1.08094e-05
          950   1.08094e-05
          951   1.08094e-05
          952   1.08094e-05
          953   1.08094e-05
          954   1.08094e-05
          955   1.08094e-05
          956   1.08094e-05
          957   1.08094e-05
          958   1.08094e-05
          959   1.08094e-05
          960   1.08094e-05
          961   1.08094e-05
          962   1.08094e-05
          963   1.08094e-05
          964   1.08094e-05
          965   1.08094e-05
          966   1.08094e-05
          967   1.08094e-05
          968   1.08094e-05
          969   1.08094e-05
          970   1.08094e-05
          971   1.08094e-05
          972   1.08094e-05
          973   1.08094e-05
          974   1.08094e-05
          975   1.08094e-05
          976   1.08094e-05
          977   1.08094e-05
          978   1.08094e-05
          979   1.08094e-05
          980   1.08094e-05
          981   1.08094e-05
          982   1.08094e-05
          983   1.08094e-05
          984   1.08094e-05
          985   1.08094e-05
          986   1.08094e-05
          987   1.08094e-05
          988   1.08094e-05
          989   1.08094e-05
          990   1.08094e-05
          991   1.08094e-05
          992   1.08094e-05
          993   1.08094e-05
          994   1.08094e-05
          995   1.08094e-05
          996   1.08094e-05
          997   1.08094e-05
          998   1.08094e-05
          999   1.08094e-05
         1000   1.08094e-05
         1001   1.08094e-05
         1002   1.08094e-05
         1003   1.08094e-05
         1004   1.08094e-05
         1005   1.08094e-05
         1006   1.08094e-05
         1007   1.08094e-05
         1008   1.08094e-05
         1009   1.08094e-05
         1010   1.08094e-05
         1011   1.08094e-05
         1012   1.08094e-05
         1013   1.08094e-05
         1014   1.08094e-05
         1015   1.08094e-05
         1016   1.08094e-05
         1017   1.08094e-05
         1018   1.08094e-05
         1019   1.08094e-05
         1020   1.08094e-05
         1021   1.08094e-05
         1022   1.08094e-05
         1023   1.08094e-05
         1024   1.08094e-05
         1025   1.08094e-05
         1026   1.08094e-05
         1027   1.08094e-05
         1028   1.08094e-05
         1029   1.08094e-05
         1030   1.08094e-05
         1031   1.08094e-05
         1032   1.08094e-05
         1033   1.08094e-05
         1034   1.08094e-05
         1035   1.08094e-05
         1036   1.08094e-05
         1037   1.08094e-05
         1038   1.08094e-05
         1039   1.08094e-05
         1040   1.08094e-05
         1041   1.08094e-05
         1042   1.08094e-05
         1043   1.08094e-05
         1044   1.08094e-05
         1045   1.08094e-05
         1046   1.08094e-05
         1047   1.08094e-05
         1048   1.08094e-05
         1049   1.08094e-05
         1050   1.08094e-05
         1051   1.08094e-05
         1052   1.08094e-05
         1053   1.08094e-05
         1054   1.08094e-05
         1055   1.08094e-05
         1056   1.08094e-05
         1057   1.08094e-05
         1058   1.08094e-05
         1059   1.08094e-05
         1060   1.08094e-05
         1061   1.08094e-05
         1062   1.08094e-05
         1063   1.08094e-05
         1064   1.08094e-05
         1065   1.08094e-05
         1066   1.08094e-05
         1067   1.08094e-05
         1068   1.08094e-05