# Probe 0 (0.05 0.05 0.005)
#       Probe             0
#        Time
          250          0.04
          500          0.04
          750          0.04
         1000          0.04
         1250     0.0399999
         1500     0.0399998
         1750     0.0399997
         2000     0.0399995
         2250     0.0399992
         2500     0.0399989
         2750     0.0399983
         3000     0.0399976
         3250     0.0399967
         3500     0.0399956
         3750     0.0399941
         4000     0.0399924
         4250     0.0399903
         4500     0.0399877
         4750     0.0399847
         5000     0.0399812
         5250     0.0399771
         5500     0.0399724
         5750      0.039967
         6000     0.0399608
         6250     0.0399538
         6500     0.0399459
         6750     0.0399371
         7000     0.0399272
         7250     0.0399161
         7500     0.0399039
         7750     0.0398903
         8000     0.0398754
         8250      0.039859
         8500      0.039841
         8750     0.0398214
         9000     0.0398001
         9250     0.0397768
         9500     0.0397517
         9750     0.0397245
        10000     0.0396951
        10250     0.0396635
        10500     0.0396294
        10750     0.0395929
        11000     0.0395538
        11250      0.039512
        11500     0.0394674
        11750     0.0394198
        12000     0.0393692
        12250     0.0393153
        12500     0.0392582
        12750     0.0391977
        13000     0.0391336
        13250     0.0390658
        13500     0.0389943
        13750     0.0389189
        14000     0.0388394
        14250     0.0387558
        14500      0.038668
        14750     0.0385758
        15000     0.0384791
        15250     0.0383777
        15500     0.0382717
        15750     0.0381608
        16000      0.038045
        16250     0.0379242
        16500     0.0377982
        16750     0.0376669
        17000     0.0375304
        17250     0.0373884
        17500     0.0372408
        17750     0.0370877
        18000     0.0369289
        18250     0.0367644
        18500      0.036594
        18750     0.0364177
        19000     0.0362355
        19250     0.0360474
        19500     0.0358532
        19750     0.0356529
        20000     0.0354466
        20250     0.0352341
        20500     0.0350155
        20750     0.0347907
        21000     0.0345599
        21250     0.0343229
        21500     0.0340798
        21750     0.0338306
        22000     0.0335754
        22250     0.0333142
        22500      0.033047
        22750      0.032774
        23000     0.0324951
        23250     0.0322106
        23500     0.0319203
        23750     0.0316246
        24000     0.0313234
        24250     0.0310169
        24500     0.0307053
        24750     0.0303885
        25000     0.0300669
        25250     0.0297405
        25500     0.0294096
        25750     0.0290742
        26000     0.0287345
        26250     0.0283908
        26500     0.0280432
        26750      0.027692
        27000     0.0273373
        27250     0.0269793
        27500     0.0266183
        27750     0.0262545
        28000     0.0258881
        28250     0.0255193
        28500     0.0251484
        28750     0.0247755
        29000     0.0244011
        29250     0.0240252
        29500     0.0236482
        29750     0.0232703
        30000     0.0228916
        30250     0.0225126
        30500     0.0221334
        30750     0.0217542
        31000     0.0213754
        31250     0.0209971
        31500     0.0206196
        31750     0.0202431
        32000     0.0198679
        32250     0.0194942
        32500     0.0191222
        32750     0.0187521
        33000     0.0183841
        33250     0.0180186
        33500     0.0176556
        33750     0.0172953
        34000      0.016938
        34250     0.0165838
        34500     0.0162329
        34750     0.0158855
        35000     0.0155417
        35250     0.0152018
        35500     0.0148657
        35750     0.0145337
        36000      0.014206
        36250     0.0138825
        36500     0.0135635
        36750      0.013249
        37000     0.0129392
        37250      0.012634
        37500     0.0123337
        37750     0.0120383
        38000     0.0117477
        38250     0.0114622
        38500     0.0111817
        38750     0.0109063
        39000      0.010636
        39250     0.0103709
        39500     0.0101109
        39750    0.00985606
        40000     0.0096064
        40250    0.00936192
        40500     0.0091226
        40750    0.00888843
        41000    0.00865939
        41250    0.00843546
        41500    0.00821661
        41750    0.00800279
        42000    0.00779398
        42250    0.00759013
        42500    0.00739119
        42750    0.00719711
        43000    0.00700783
        43250     0.0068233
        43500    0.00664346
        43750    0.00646823
        44000    0.00629756
        44250    0.00613138
        44500     0.0059696
        44750    0.00581217
        45000      0.005659
        45250    0.00551002
        45500    0.00536516
        45750    0.00522432
        46000    0.00508745
        46250    0.00495444
        46500    0.00482523
        46750    0.00469973
        47000    0.00457786
        47250    0.00445954
        47500    0.00434469
        47750    0.00423323
        48000    0.00412508
        48250    0.00402015
        48500    0.00391837
        48750    0.00381966
        49000    0.00372394
        49250    0.00363114
        49500    0.00354117
        49750    0.00345397
        50000    0.00336945
        50250    0.00328754
        50500    0.00320818
        50750    0.00313129
        51000     0.0030568
        51250    0.00298464
        51500    0.00291475
        51750    0.00284705
        52000    0.00278149
        52250    0.00271801
        52500    0.00265653
        52750      0.002597
        53000    0.00253936
        53250    0.00248355
        53500    0.00242952
        53750     0.0023772
        54000    0.00232656
        54250    0.00227753
        54500    0.00223006
        54750    0.00218411
        55000    0.00213963
        55250    0.00209656
        55500    0.00205487
        55750    0.00201451
        56000    0.00197543
        56250     0.0019376
        56500    0.00190097
        56750    0.00186551
        57000    0.00183117
        57250    0.00179792
        57500    0.00176573
        57750    0.00173456
        58000    0.00170437
        58250    0.00167513
        58500    0.00164681
        58750    0.00161939
        59000    0.00159282
        59250    0.00156709
        59500    0.00154216
        59750      0.001518
        60000     0.0014946
        60250    0.00147193
        60500    0.00144995
        60750    0.00142865
        61000    0.00140801
        61250    0.00138801
        61500    0.00136861
        61750    0.00134981
        62000    0.00133158
        62250     0.0013139
        62500    0.00129675
        62750    0.00128013
        63000      0.001264
        63250    0.00124835
        63500    0.00123317
        63750    0.00121845
        64000    0.00120416
        64250    0.00119029
        64500    0.00117683
        64750    0.00116376
        65000    0.00115107
        65250    0.00113876
        65500     0.0011268
        65750    0.00111518
        66000     0.0011039
        66250    0.00109294
        66500     0.0010823
        66750    0.00107195
        67000     0.0010619
        67250    0.00105213
        67500    0.00104264
        67750    0.00103341
        68000    0.00102444
        68250    0.00101571
        68500    0.00100723
        68750   0.000998977
        69000   0.000990952
        69250   0.000983145
        69500   0.000975549
        69750   0.000968158
        70000   0.000960966
        70250   0.000953966
        70500   0.000947152
        70750   0.000940518
        71000    0.00093406
        71250   0.000927771
        71500   0.000921646
        71750   0.000915681
        72000    0.00090987
        72250   0.000904209
        72500   0.000898693
        72750   0.000893318
        73000   0.000888079
        73250   0.000882973
        73500   0.000877996
        73750   0.000873143
        74000   0.000868412
        74250   0.000863797
        74500   0.000859297
        74750   0.000854908
        75000   0.000850626
        75250   0.000846449
        75500   0.000842372
        75750   0.000838395
        76000   0.000834513
        76250   0.000830723
        76500   0.000827024
        76750   0.000823413
        77000   0.000819886
        77250   0.000816443
        77500    0.00081308
        77750   0.000809795
        78000   0.000806586
        78250   0.000803451
        78500   0.000800388
        78750   0.000797395
        79000    0.00079447
        79250   0.000791611
        79500   0.000788817
        79750   0.000786085
        80000   0.000783413
        80250   0.000780802
        80500   0.000778248
        80750    0.00077575
        81000   0.000773306
        81250   0.000770917
        81500   0.000768578
        81750   0.000766291
        82000   0.000764052
        82250   0.000761862
        82500   0.000759718
        82750   0.000757619
        83000   0.000755565
        83250   0.000753554
        83500   0.000751585
        83750   0.000749657
        84000   0.000747769
        84250   0.000745919
        84500   0.000744108
        84750   0.000742334
        85000   0.000740596
        85250   0.000738893
        85500   0.000737225
        85750    0.00073559
        86000   0.000733988
        86250   0.000732417
        86500   0.000730878
        86750   0.000729369
        87000    0.00072789
        87250    0.00072644
        87500   0.000725018
        87750   0.000723623
        88000   0.000722256
        88250   0.000720914
        88500   0.000719599
        88750   0.000718308
        89000   0.000717042
        89250     0.0007158
        89500   0.000714581
        89750   0.000713385
        90000   0.000712212
        90250    0.00071106
        90500    0.00070993
        90750    0.00070882
        91000   0.000707731
        91250   0.000706661
        91500   0.000705611
        91750    0.00070458
        92000   0.000703568
        92250   0.000702573
        92500   0.000701597
        92750   0.000700638
        93000   0.000699696
        93250   0.000698771
        93500   0.000697862
        93750   0.000696968
        94000   0.000696091
        94250   0.000695228
        94500   0.000694381
        94750   0.000693548
        95000    0.00069273
        95250   0.000691925
        95500   0.000691135
        95750   0.000690357
        96000   0.000689593
        96250   0.000688842
        96500   0.000688103
        96750   0.000687376
        97000   0.000686662
        97250    0.00068596
        97500   0.000685269
        97750   0.000684589
        98000   0.000683921
        98250   0.000683263
        98500   0.000682616
        98750    0.00068198
        99000   0.000681354
        99250   0.000680738
        99500   0.000680132
        99750   0.000679535
       100000   0.000678948
