# Probe 0 (0.05 0.05 0.005)
#       Probe             0
#        Time
            1   2.33108e-20
            2   4.05211e-19
            3    2.1347e-18
            4   6.91591e-18
            5   1.71206e-17
            6   3.60151e-17
            7   6.75635e-17
            8   1.16482e-16
            9   1.88241e-16
           10   2.89061e-16
           11   4.25917e-16
           12   6.06536e-16
           13   8.39398e-16
           14   1.13373e-15
           15   1.49953e-15
           16   1.94753e-15
           17   2.48921e-15
           18   3.13682e-15
           19   3.90336e-15
           20   4.80257e-15
           21   5.84896e-15
           22   7.05777e-15
           23   8.44502e-15
           24   1.00275e-14
           25   1.18226e-14
           26   1.38487e-14
           27   1.61248e-14
           28   1.86707e-14
           29   2.15068e-14
           30   2.46545e-14
           31   2.81357e-14
           32   3.19733e-14
           33   3.61908e-14
           34   4.08125e-14
           35   4.58634e-14
           36   5.13693e-14
           37   5.73567e-14
           38    6.3853e-14
           39   7.08861e-14
           40    7.8485e-14
           41   8.66791e-14
           42   9.54987e-14
           43   1.04975e-13
           44    1.1514e-13
           45   1.26025e-13
           46   1.37665e-13
           47   1.50093e-13
           48   1.63345e-13
           49   1.77455e-13
           50   1.92461e-13
           51   2.08398e-13
           52   2.25306e-13
           53   2.43222e-13
           54   2.62186e-13
           55   2.82238e-13
           56   3.03419e-13
           57    3.2577e-13
           58   3.49334e-13
           59   3.74154e-13
           60   4.00274e-13
           61   4.27738e-13
           62   4.56592e-13
           63   4.86882e-13
           64   5.18654e-13
           65   5.51957e-13
           66   5.86839e-13
           67   6.23348e-13
           68   6.61535e-13
           69    7.0145e-13
           70   7.43145e-13
           71   7.86672e-13
           72   8.32083e-13
           73   8.79433e-13
           74   9.28775e-13
           75   9.80166e-13
           76   1.03366e-12
           77   1.08931e-12
           78   1.14719e-12
           79   1.20734e-12
           80   1.26982e-12
           81    1.3347e-12
           82   1.40203e-12
           83   1.47188e-12
           84    1.5443e-12
           85   1.61937e-12
           86   1.69714e-12
           87   1.77768e-12
           88   1.86106e-12
           89   1.94733e-12
           90   2.03657e-12
           91   2.12884e-12
           92   2.22421e-12
           93   2.32275e-12
           94   2.42452e-12
           95   2.52961e-12
           96   2.63808e-12
           97      2.75e-12
           98   2.86544e-12
           99   2.98448e-12
          100   3.10719e-12
          101   3.23364e-12
          102   3.36392e-12
          103   3.49809e-12
          104   3.63624e-12
          105   3.77844e-12
          106   3.92478e-12
          107   4.07532e-12
          108   4.23015e-12
          109   4.38935e-12
          110     4.553e-12
          111   4.72119e-12
          112     4.894e-12
          113    5.0715e-12
          114    5.2538e-12
          115   5.44096e-12
          116   5.63308e-12
          117   5.83024e-12
          118   6.03253e-12
          119   6.24005e-12
          120   6.45287e-12
          121   6.67109e-12
          122    6.8948e-12
          123   7.12408e-12
          124   7.35904e-12
          125   7.59977e-12
          126   7.84635e-12
          127   8.09889e-12
          128   8.35747e-12
          129   8.62219e-12
          130   8.89316e-12
          131   9.17046e-12
          132    9.4542e-12
          133   9.74447e-12
          134   1.00414e-11
          135    1.0345e-11
          136   1.06555e-11
          137   1.09729e-11
          138   1.12973e-11
          139   1.16289e-11
          140   1.19678e-11
          141    1.2314e-11
          142   1.26676e-11
          143   1.30288e-11
          144   1.33977e-11
          145   1.37744e-11
          146   1.41589e-11
          147   1.45515e-11
          148   1.49521e-11
          149    1.5361e-11
          150   1.57782e-11
          151   1.62038e-11
          152    1.6638e-11
          153   1.70808e-11
          154   1.75325e-11
          155    1.7993e-11
          156   1.84626e-11
          157   1.89412e-11
          158   1.94292e-11
          159   1.99265e-11
          160   2.04332e-11
          161   2.09496e-11
          162   2.14757e-11
          163   2.20117e-11
          164   2.25576e-11
          165   2.31137e-11
          166   2.36799e-11
          167   2.42565e-11
          168   2.48435e-11
          169   2.54412e-11
          170   2.60495e-11
          171   2.66687e-11
          172   2.72989e-11
          173   2.79402e-11
          174   2.85927e-11
          175   2.92566e-11
          176    2.9932e-11
          177    3.0619e-11
          178   3.13177e-11
          179   3.20284e-11
          180    3.2751e-11
          181   3.34859e-11
          182    3.4233e-11
          183   3.49926e-11
          184   3.57647e-11
          185   3.65495e-11
          186   3.73472e-11
          187   3.81579e-11
          188   3.89817e-11
          189   3.98188e-11
          190   4.06693e-11
          191   4.15333e-11
          192    4.2411e-11
          193   4.33026e-11
          194   4.42081e-11
          195   4.51278e-11
          196   4.60618e-11
          197   4.70102e-11
          198   4.79731e-11
          199   4.89508e-11
          200   4.99433e-11
          201   5.09508e-11
          202   5.19736e-11
          203   5.30116e-11
          204   5.40651e-11
          205   5.51343e-11
          206   5.62192e-11
          207     5.732e-11
          208    5.8437e-11
          209   5.95701e-11
          210   6.07197e-11
          211   6.18859e-11
          212   6.30687e-11
          213   6.42685e-11
          214   6.54852e-11
          215   6.67192e-11
          216   6.79705e-11
          217   6.92394e-11
          218   7.05259e-11
          219   7.18303e-11
          220   7.31527e-11
          221   7.44932e-11
          222   7.58521e-11
          223   7.72295e-11
          224   7.86256e-11
          225   8.00405e-11
          226   8.14745e-11
          227   8.29276e-11
          228      8.44e-11
          229    8.5892e-11
          230   8.74037e-11
          231   8.89353e-11
          232   9.04869e-11
          233   9.20587e-11
          234   9.36509e-11
          235   9.52636e-11
          236   9.68971e-11
          237   9.85516e-11
          238   1.00227e-10
          239   1.01924e-10
          240   1.03642e-10
          241   1.05382e-10
          242   1.07144e-10
          243   1.08927e-10
          244   1.10733e-10
          245   1.12561e-10
          246   1.14412e-10
          247   1.16286e-10
          248   1.18182e-10
          249   1.20102e-10
          250   1.22044e-10
          251   1.24011e-10
          252   1.26001e-10
          253   1.28015e-10
          254   1.30052e-10
          255   1.32114e-10
          256   1.34201e-10
          257   1.36312e-10
          258   1.38448e-10
          259   1.40609e-10
          260   1.42795e-10
          261   1.45007e-10
          262   1.47244e-10
          263   1.49507e-10
          264   1.51796e-10
          265   1.54111e-10
          266   1.56452e-10
          267    1.5882e-10
          268   1.61215e-10
          269   1.63637e-10
          270   1.66086e-10
          271   1.68562e-10
          272   1.71066e-10
          273   1.73598e-10
          274   1.76157e-10
          275   1.78745e-10
          276   1.81362e-10
          277   1.84007e-10
          278   1.86681e-10
          279   1.89383e-10
          280   1.92116e-10
          281   1.94877e-10
          282   1.97668e-10
          283   2.00489e-10
          284    2.0334e-10
          285   2.06222e-10
          286   2.09134e-10
          287   2.12077e-10
          288    2.1505e-10
          289   2.18055e-10
          290   2.21091e-10
          291   2.24159e-10
          292   2.27259e-10
          293    2.3039e-10
          294   2.33554e-10
          295   2.36751e-10
          296    2.3998e-10
          297   2.43242e-10
          298   2.46537e-10
          299   2.49865e-10
          300   2.53228e-10
          301   2.56624e-10
          302   2.60053e-10
          303   2.63518e-10
          304   2.67016e-10
          305    2.7055e-10
          306   2.74118e-10
          307   2.77722e-10
          308   2.81361e-10
          309   2.85036e-10
          310   2.88746e-10
          311   2.92493e-10
          312   2.96276e-10
          313   3.00095e-10
          314   3.03952e-10
          315   3.07845e-10
          316   3.11776e-10
          317   3.15744e-10
          318    3.1975e-10
          319   3.23794e-10
          320   3.27876e-10
          321   3.31997e-10
          322   3.36156e-10
          323   3.40355e-10
          324   3.44592e-10
          325   3.48869e-10
          326   3.53186e-10
          327   3.57543e-10
          328   3.61939e-10
          329   3.66377e-10
          330   3.70855e-10
          331   3.75373e-10
          332   3.79933e-10
          333   3.84535e-10
          334   3.89178e-10
          335   3.93863e-10
          336    3.9859e-10
          337    4.0336e-10
          338   4.08172e-10
          339   4.13028e-10
          340   4.17926e-10
          341   4.22868e-10
          342   4.27854e-10
          343   4.32883e-10
          344   4.37957e-10
          345   4.43075e-10
          346   4.48238e-10
          347   4.53446e-10
          348   4.58699e-10
          349   4.63998e-10
          350   4.69342e-10
          351   4.74733e-10
          352    4.8017e-10
          353   4.85653e-10
          354   4.91183e-10
          355   4.96761e-10
          356   5.02385e-10
          357   5.08058e-10
          358   5.13778e-10
          359   5.19546e-10
          360   5.25363e-10
          361   5.31229e-10
          362   5.37143e-10
          363   5.43107e-10
          364    5.4912e-10
          365   5.55183e-10
          366   5.61296e-10
          367    5.6746e-10
          368   5.73674e-10
          369   5.79939e-10
          370   5.86255e-10
          371   5.92623e-10
          372   5.99042e-10
          373   6.05514e-10
          374   6.12037e-10
          375   6.18613e-10
          376   6.25243e-10
          377   6.31925e-10
          378    6.3866e-10
          379    6.4545e-10
          380   6.52293e-10
          381   6.59191e-10
          382   6.66143e-10
          383    6.7315e-10
          384   6.80212e-10
          385    6.8733e-10
          386   6.94503e-10
          387   7.01732e-10
          388   7.09018e-10
          389    7.1636e-10
          390   7.23759e-10
          391   7.31215e-10
          392   7.38729e-10
          393     7.463e-10
          394    7.5393e-10
          395   7.61618e-10
          396   7.69364e-10
          397    7.7717e-10
          398   7.85034e-10
          399   7.92959e-10
          400   8.00943e-10
          401   8.08987e-10
          402   8.17091e-10
          403   8.25257e-10
          404   8.33483e-10
          405   8.41771e-10
          406    8.5012e-10
          407   8.58532e-10
          408   8.67005e-10
          409   8.75542e-10
          410   8.84141e-10
          411   8.92803e-10
          412   9.01529e-10
          413   9.10318e-10
          414   9.19172e-10
          415    9.2809e-10
          416   9.37073e-10
          417   9.46121e-10
          418   9.55234e-10
          419   9.64413e-10
          420   9.73658e-10
          421   9.82969e-10
          422   9.92347e-10
          423   1.00179e-09
          424    1.0113e-09
          425   1.02088e-09
          426   1.03053e-09
          427   1.04025e-09
          428   1.05003e-09
          429   1.05988e-09
          430   1.06981e-09
          431    1.0798e-09
          432   1.08986e-09
          433   1.09999e-09
          434   1.11019e-09
          435   1.12047e-09
          436   1.13081e-09
          437   1.14123e-09
          438   1.15172e-09
          439   1.16228e-09
          440   1.17291e-09
          441   1.18361e-09
          442   1.19439e-09
          443   1.20524e-09
          444   1.21617e-09
          445   1.22717e-09
          446   1.23824e-09
          447   1.24939e-09
          448   1.26061e-09
          449   1.27191e-09
          450   1.28329e-09
          451   1.29474e-09
          452   1.30626e-09
          453   1.31787e-09
          454   1.32955e-09
          455   1.34131e-09
          456   1.35315e-09
          457   1.36506e-09
          458   1.37705e-09
          459   1.38913e-09
          460   1.40128e-09
          461   1.41351e-09
          462   1.42582e-09
          463   1.43821e-09
          464   1.45068e-09
          465   1.46323e-09
          466   1.47587e-09
          467   1.48858e-09
          468   1.50138e-09
          469   1.51426e-09
          470   1.52722e-09
          471   1.54027e-09
          472    1.5534e-09
          473   1.56661e-09
          474   1.57991e-09
          475   1.59329e-09
          476   1.60676e-09
          477   1.62031e-09
          478   1.63394e-09
          479   1.64767e-09
          480   1.66148e-09
          481   1.67537e-09
          482   1.68936e-09
          483   1.70343e-09
          484   1.71758e-09
          485   1.73183e-09
          486   1.74616e-09
          487   1.76059e-09
          488    1.7751e-09
          489    1.7897e-09
          490   1.80439e-09
          491   1.81917e-09
          492   1.83405e-09
          493   1.84901e-09
          494   1.86406e-09
          495   1.87921e-09
          496   1.89445e-09
          497   1.90978e-09
          498   1.92521e-09
          499   1.94072e-09
          500   1.95633e-09
          501   1.97204e-09
          502   1.98784e-09
          503   2.00373e-09
          504   2.01972e-09
          505   2.03581e-09
          506   2.05199e-09
          507   2.06826e-09
          508   2.08464e-09
          509   2.10111e-09
          510   2.11768e-09
          511   2.13434e-09
          512   2.15111e-09
          513   2.16797e-09
          514   2.18493e-09
          515   2.20199e-09
          516   2.21915e-09
          517   2.23641e-09
          518   2.25377e-09
          519   2.27123e-09
          520    2.2888e-09
          521   2.30646e-09
          522   2.32423e-09
          523    2.3421e-09
          524   2.36007e-09
          525   2.37815e-09
          526   2.39633e-09
          527   2.41461e-09
          528     2.433e-09
          529   2.45149e-09
          530   2.47009e-09
          531   2.48879e-09
          532    2.5076e-09
          533   2.52651e-09
          534   2.54554e-09
          535   2.56467e-09
          536    2.5839e-09
          537   2.60325e-09
          538    2.6227e-09
          539   2.64227e-09
          540   2.66194e-09
          541   2.68172e-09
          542   2.70161e-09
          543   2.72161e-09
          544   2.74172e-09
          545   2.76195e-09
          546   2.78228e-09
          547   2.80273e-09
          548   2.82329e-09
          549   2.84397e-09
          550   2.86475e-09
          551   2.88565e-09
          552   2.90667e-09
          553    2.9278e-09
          554   2.94904e-09
          555    2.9704e-09
          556   2.99187e-09
          557   3.01347e-09
          558   3.03517e-09
          559     3.057e-09
          560   3.07894e-09
          561     3.101e-09
          562   3.12318e-09
          563   3.14548e-09
          564    3.1679e-09
          565   3.19043e-09
          566   3.21309e-09
          567   3.23587e-09
          568   3.25876e-09
          569   3.28178e-09
          570   3.30492e-09
          571   3.32819e-09
          572   3.35157e-09
          573   3.37508e-09
          574   3.39871e-09
          575   3.42247e-09
          576   3.44635e-09
          577   3.47036e-09
          578   3.49449e-09
          579   3.51874e-09
          580   3.54312e-09
          581   3.56763e-09
          582   3.59227e-09
          583   3.61703e-09
          584   3.64192e-09
          585   3.66694e-09
          586   3.69209e-09
          587   3.71736e-09
          588   3.74277e-09
          589   3.76831e-09
          590   3.79397e-09
          591   3.81977e-09
          592    3.8457e-09
          593   3.87176e-09
          594   3.89795e-09
          595   3.92428e-09
          596   3.95074e-09
          597   3.97733e-09
          598   4.00405e-09
          599   4.03091e-09
          600   4.05791e-09
          601   4.08504e-09
          602   4.11231e-09
          603   4.13971e-09
          604   4.16725e-09
          605   4.19493e-09
          606   4.22274e-09
          607    4.2507e-09
          608   4.27879e-09
          609   4.30702e-09
          610   4.33539e-09
          611    4.3639e-09
          612   4.39255e-09
          613   4.42134e-09
          614   4.45027e-09
          615   4.47934e-09
          616   4.50856e-09
          617   4.53792e-09
          618   4.56742e-09
          619   4.59707e-09
          620   4.62686e-09
          621   4.65679e-09
          622   4.68687e-09
          623   4.71709e-09
          624   4.74746e-09
          625   4.77798e-09
          626   4.80865e-09
          627   4.83946e-09
          628   4.87042e-09
          629   4.90152e-09
          630   4.93278e-09
          631   4.96419e-09
          632   4.99574e-09
          633   5.02745e-09
          634    5.0593e-09
          635   5.09131e-09
          636   5.12347e-09
          637   5.15578e-09
          638   5.18824e-09
          639   5.22086e-09
          640   5.25363e-09
          641   5.28655e-09
          642   5.31963e-09
          643   5.35287e-09
          644   5.38625e-09
          645    5.4198e-09
          646    5.4535e-09
          647   5.48736e-09
          648   5.52138e-09
          649   5.55555e-09
          650   5.58988e-09
          651   5.62437e-09
          652   5.65902e-09
          653   5.69383e-09
          654    5.7288e-09
          655   5.76394e-09
          656   5.79923e-09
          657   5.83468e-09
          658    5.8703e-09
          659   5.90608e-09
          660   5.94202e-09
          661   5.97813e-09
          662    6.0144e-09
          663   6.05084e-09
          664   6.08744e-09
          665   6.12421e-09
          666   6.16114e-09
          667   6.19824e-09
          668   6.23551e-09
          669   6.27294e-09
          670   6.31055e-09
          671   6.34832e-09
          672   6.38626e-09
          673   6.42437e-09
          674   6.46265e-09
          675   6.50111e-09
          676   6.53973e-09
          677   6.57853e-09
          678    6.6175e-09
          679   6.65664e-09
          680   6.69595e-09
          681   6.73544e-09
          682    6.7751e-09
          683   6.81494e-09
          684   6.85495e-09
          685   6.89514e-09
          686   6.93551e-09
          687   6.97605e-09
          688   7.01677e-09
          689   7.05767e-09
          690   7.09875e-09
          691      7.14e-09
          692   7.18144e-09
          693   7.22305e-09
          694   7.26485e-09
          695   7.30682e-09
          696   7.34898e-09
          697   7.39132e-09
          698   7.43385e-09
          699   7.47655e-09
          700   7.51944e-09
          701   7.56252e-09
          702   7.60578e-09
          703   7.64922e-09
          704   7.69285e-09
          705   7.73667e-09
          706   7.78068e-09
          707   7.82487e-09
          708   7.86925e-09
          709   7.91381e-09
          710   7.95857e-09
          711   8.00352e-09
          712   8.04865e-09
          713   8.09398e-09
          714    8.1395e-09
          715   8.18521e-09
          716   8.23111e-09
          717   8.27721e-09
          718    8.3235e-09
          719   8.36998e-09
          720   8.41666e-09
          721   8.46353e-09
          722    8.5106e-09
          723   8.55786e-09
          724   8.60532e-09
          725   8.65298e-09
          726   8.70083e-09
          727   8.74888e-09
          728   8.79714e-09
          729   8.84559e-09
          730   8.89424e-09
          731   8.94309e-09
          732   8.99214e-09
          733    9.0414e-09
          734   9.09085e-09
          735   9.14051e-09
          736   9.19037e-09
          737   9.24044e-09
          738   9.29071e-09
          739   9.34118e-09
          740   9.39186e-09
          741   9.44275e-09
          742   9.49384e-09
          743   9.54514e-09
          744   9.59665e-09
          745   9.64836e-09
          746   9.70028e-09
          747   9.75242e-09
          748   9.80476e-09
          749   9.85731e-09
          750   9.91008e-09
          751   9.96305e-09
          752   1.00162e-08
          753   1.00696e-08
          754   1.01233e-08
          755   1.01771e-08
          756   1.02311e-08
          757   1.02854e-08
          758   1.03399e-08
          759   1.03945e-08
          760   1.04495e-08
          761   1.05046e-08
          762   1.05599e-08
          763   1.06155e-08
          764   1.06713e-08
          765   1.07272e-08
          766   1.07835e-08
          767   1.08399e-08
          768   1.08966e-08
          769   1.09534e-08
          770   1.10105e-08
          771   1.10679e-08
          772   1.11254e-08
          773   1.11832e-08
          774   1.12412e-08
          775   1.12994e-08
          776   1.13579e-08
          777   1.14165e-08
          778   1.14755e-08
          779   1.15346e-08
          780   1.15939e-08
          781   1.16535e-08
          782   1.17133e-08
          783   1.17734e-08
          784   1.18337e-08
          785   1.18942e-08
          786   1.19549e-08
          787   1.20159e-08
          788   1.20771e-08
          789   1.21385e-08
          790   1.22002e-08
          791   1.22621e-08
          792   1.23243e-08
          793   1.23867e-08
          794   1.24493e-08
          795   1.25121e-08
          796   1.25752e-08
          797   1.26385e-08
          798   1.27021e-08
          799   1.27659e-08
          800     1.283e-08
          801   1.28943e-08
          802   1.29588e-08
          803   1.30236e-08
          804   1.30886e-08
          805   1.31538e-08
          806   1.32193e-08
          807   1.32851e-08
          808   1.33511e-08
          809   1.34173e-08
          810   1.34838e-08
          811   1.35505e-08
          812   1.36175e-08
          813   1.36847e-08
          814   1.37522e-08
          815   1.38199e-08
          816   1.38879e-08
          817   1.39561e-08
          818   1.40246e-08
          819   1.40933e-08
          820   1.41623e-08
          821   1.42315e-08
          822    1.4301e-08
          823   1.43707e-08
          824   1.44407e-08
          825    1.4511e-08
          826   1.45815e-08
          827   1.46522e-08
          828   1.47233e-08
          829   1.47945e-08
          830   1.48661e-08
          831   1.49379e-08
          832   1.50099e-08
          833   1.50822e-08
          834   1.51548e-08
          835   1.52276e-08
          836   1.53007e-08
          837   1.53741e-08
          838   1.54477e-08
          839   1.55216e-08
          840   1.55958e-08
          841   1.56702e-08
          842   1.57449e-08
          843   1.58198e-08
          844    1.5895e-08
          845   1.59705e-08
          846   1.60463e-08
          847   1.61223e-08
          848   1.61986e-08
          849   1.62752e-08
          850    1.6352e-08
          851   1.64291e-08
          852   1.65065e-08
          853   1.65841e-08
          854   1.66621e-08
          855   1.67403e-08
          856   1.68188e-08
          857   1.68975e-08
          858   1.69765e-08
          859   1.70558e-08
          860   1.71354e-08
          861   1.72153e-08
          862   1.72954e-08
          863   1.73758e-08
          864   1.74565e-08
          865   1.75375e-08
          866   1.76188e-08
          867   1.77003e-08
          868   1.77821e-08
          869   1.78643e-08
          870   1.79466e-08
          871   1.80293e-08
          872   1.81123e-08
          873   1.81955e-08
          874   1.82791e-08
          875   1.83629e-08
          876    1.8447e-08
          877   1.85314e-08
          878   1.86161e-08
          879   1.87011e-08
          880   1.87863e-08
          881   1.88719e-08
          882   1.89578e-08
          883   1.90439e-08
          884   1.91303e-08
          885   1.92171e-08
          886   1.93041e-08
          887   1.93914e-08
          888    1.9479e-08
          889    1.9567e-08
          890   1.96552e-08
          891   1.97437e-08
          892   1.98325e-08
          893   1.99216e-08
          894    2.0011e-08
          895   2.01007e-08
          896   2.01907e-08
          897    2.0281e-08
          898   2.03716e-08
          899   2.04626e-08
          900   2.05538e-08
          901   2.06453e-08
          902   2.07371e-08
          903   2.08293e-08
          904   2.09217e-08
          905   2.10145e-08
          906   2.11075e-08
          907   2.12009e-08
          908   2.12946e-08
          909   2.13886e-08
          910   2.14829e-08
          911   2.15775e-08
          912   2.16724e-08
          913   2.17676e-08
          914   2.18632e-08
          915    2.1959e-08
          916   2.20552e-08
          917   2.21517e-08
          918   2.22485e-08
          919   2.23457e-08
          920   2.24431e-08
          921   2.25409e-08
          922   2.26389e-08
          923   2.27373e-08
          924   2.28361e-08
          925   2.29351e-08
          926   2.30345e-08
          927   2.31342e-08
          928   2.32342e-08
          929   2.33345e-08
          930   2.34352e-08
          931   2.35362e-08
          932   2.36375e-08
          933   2.37391e-08
          934   2.38411e-08
          935   2.39434e-08
          936    2.4046e-08
          937   2.41489e-08
          938   2.42522e-08
          939   2.43558e-08
          940   2.44598e-08
          941    2.4564e-08
          942   2.46687e-08
          943   2.47736e-08
          944   2.48789e-08
          945   2.49845e-08
          946   2.50904e-08
          947   2.51967e-08
          948   2.53033e-08
          949   2.54103e-08
          950   2.55176e-08
          951   2.56252e-08
          952   2.57332e-08
          953   2.58415e-08
          954   2.59502e-08
          955   2.60592e-08
          956   2.61685e-08
          957   2.62782e-08
          958   2.63883e-08
          959   2.64987e-08
          960   2.66094e-08
          961   2.67205e-08
          962   2.68319e-08
          963   2.69436e-08
          964   2.70558e-08
          965   2.71682e-08
          966    2.7281e-08
          967   2.73942e-08
          968   2.75077e-08
          969   2.76216e-08
          970   2.77358e-08
          971   2.78504e-08
          972   2.79653e-08
          973   2.80806e-08
          974   2.81963e-08
          975   2.83123e-08
          976   2.84286e-08
          977   2.85454e-08
          978   2.86624e-08
          979   2.87799e-08
          980   2.88977e-08
          981   2.90158e-08
          982   2.91343e-08
          983   2.92532e-08
          984   2.93725e-08
          985   2.94921e-08
          986   2.96121e-08
          987   2.97324e-08
          988   2.98531e-08
          989   2.99742e-08
          990   3.00956e-08
          991   3.02174e-08
          992   3.03396e-08
          993   3.04622e-08
          994   3.05851e-08
          995   3.07084e-08
          996    3.0832e-08
          997   3.09561e-08
          998   3.10805e-08
          999   3.12053e-08
         1000   3.13304e-08
         1001    3.1456e-08
         1002   3.15819e-08
         1003   3.17082e-08
         1004   3.18349e-08
         1005   3.19619e-08
         1006   3.20894e-08
         1007   3.22172e-08
         1008   3.23454e-08
         1009   3.24739e-08
         1010   3.26029e-08
         1011   3.27322e-08
         1012    3.2862e-08
         1013   3.29921e-08
         1014   3.31226e-08
         1015   3.32535e-08
         1016   3.33847e-08
         1017   3.35164e-08
         1018   3.36484e-08
         1019   3.37809e-08
         1020   3.39137e-08
         1021   3.40469e-08
         1022   3.41805e-08
         1023   3.43145e-08
         1024   3.44489e-08
         1025   3.45837e-08
         1026   3.47189e-08
         1027   3.48545e-08
         1028   3.49905e-08
         1029   3.51269e-08
         1030   3.52637e-08
         1031   3.54008e-08
         1032   3.55384e-08
         1033   3.56764e-08
         1034   3.58148e-08
         1035   3.59535e-08
         1036   3.60927e-08
         1037   3.62323e-08
         1038   3.63723e-08
         1039   3.65127e-08
         1040   3.66535e-08
         1041   3.67947e-08
         1042   3.69363e-08
         1043   3.70784e-08
         1044   3.72208e-08
         1045   3.73636e-08
         1046   3.75069e-08
         1047   3.76506e-08
         1048   3.77946e-08
         1049   3.79391e-08
         1050    3.8084e-08
         1051   3.82294e-08
         1052   3.83751e-08
         1053   3.85213e-08
         1054   3.86678e-08
         1055   3.88148e-08
         1056   3.89622e-08
         1057     3.911e-08
         1058   3.92583e-08
         1059    3.9407e-08
         1060    3.9556e-08
         1061   3.97056e-08
         1062   3.98555e-08
         1063   4.00059e-08
         1064   4.01566e-08
         1065   4.03079e-08
         1066   4.04595e-08
         1067   4.06116e-08
         1068    4.0764e-08