# Probe 0 (0.05 0.05 0.005)
#       Probe             0
#        Time
            1   1.33626e+10
            2   1.33626e+10
            3   1.33626e+10
            4   1.33626e+10
            5   1.33626e+10
            6   1.33626e+10
            7   1.33626e+10
            8   1.33626e+10
            9   1.33626e+10
           10   1.33626e+10
           11   1.33626e+10
           12   1.33626e+10
           13   1.33626e+10
           14   1.33626e+10
           15   1.33626e+10
           16   1.33626e+10
           17   1.33626e+10
           18   1.33626e+10
           19   1.33626e+10
           20   1.33626e+10
           21   1.33626e+10
           22   1.33626e+10
           23   1.33626e+10
           24   1.33626e+10
           25   1.33626e+10
           26   1.33626e+10
           27   1.33626e+10
           28   1.33626e+10
           29   1.33626e+10
           30   1.33626e+10
           31   1.33626e+10
           32   1.33626e+10
           33   1.33626e+10
           34   1.33626e+10
           35   1.33626e+10
           36   1.33626e+10
           37   1.33626e+10
           38   1.33626e+10
           39   1.33626e+10
           40   1.33626e+10
           41   1.33626e+10
           42   1.33626e+10
           43   1.33626e+10
           44   1.33626e+10
           45   1.33626e+10
           46   1.33626e+10
           47   1.33626e+10
           48   1.33626e+10
           49   1.33626e+10
           50   1.33626e+10
           51   1.33626e+10
           52   1.33626e+10
           53   1.33626e+10
           54   1.33626e+10
           55   1.33626e+10
           56   1.33626e+10
           57   1.33626e+10
           58   1.33626e+10
           59   1.33626e+10
           60   1.33626e+10
           61   1.33626e+10
           62   1.33626e+10
           63   1.33626e+10
           64   1.33626e+10
           65   1.33626e+10
           66   1.33626e+10
           67   1.33626e+10
           68   1.33626e+10
           69   1.33626e+10
           70   1.33626e+10
           71   1.33626e+10
           72   1.33626e+10
           73   1.33626e+10
           74   1.33626e+10
           75   1.33626e+10
           76   1.33626e+10
           77   1.33626e+10
           78   1.33626e+10
           79   1.33626e+10
           80   1.33626e+10
           81   1.33626e+10
           82   1.33626e+10
           83   1.33626e+10
           84   1.33626e+10
           85   1.33626e+10
           86   1.33626e+10
           87   1.33626e+10
           88   1.33626e+10
           89   1.33626e+10
           90   1.33626e+10
           91   1.33626e+10
           92   1.33626e+10
           93   1.33626e+10
           94   1.33626e+10
           95   1.33626e+10
           96   1.33626e+10
           97   1.33626e+10
           98   1.33626e+10
           99   1.33626e+10
          100   1.33626e+10
          101   1.33626e+10
          102   1.33626e+10
          103   1.33626e+10
          104   1.33626e+10
          105   1.33626e+10
          106   1.33626e+10
          107   1.33626e+10
          108   1.33626e+10
          109   1.33626e+10
          110   1.33626e+10
          111   1.33626e+10
          112   1.33626e+10
          113   1.33626e+10
          114   1.33626e+10
          115   1.33626e+10
          116   1.33626e+10
          117   1.33626e+10
          118   1.33626e+10
          119   1.33626e+10
          120   1.33626e+10
          121   1.33626e+10
          122   1.33626e+10
          123   1.33626e+10
          124   1.33626e+10
          125   1.33626e+10
          126   1.33626e+10
          127   1.33626e+10
          128   1.33626e+10
          129   1.33626e+10
          130   1.33626e+10
          131   1.33626e+10
          132   1.33626e+10
          133   1.33626e+10
          134   1.33626e+10
          135   1.33626e+10
          136   1.33626e+10
          137   1.33626e+10
          138   1.33626e+10
          139   1.33626e+10
          140   1.33626e+10
          141   1.33626e+10
          142   1.33626e+10
          143   1.33626e+10
          144   1.33626e+10
          145   1.33626e+10
          146   1.33626e+10
          147   1.33626e+10
          148   1.33626e+10
          149   1.33626e+10
          150   1.33626e+10
          151   1.33626e+10
          152   1.33626e+10
          153   1.33626e+10
          154   1.33626e+10
          155   1.33626e+10
          156   1.33626e+10
          157   1.33626e+10
          158   1.33626e+10
          159   1.33626e+10
          160   1.33626e+10
          161   1.33626e+10
          162   1.33626e+10
          163   1.33626e+10
          164   1.33626e+10
          165   1.33626e+10
          166   1.33626e+10
          167   1.33626e+10
          168   1.33626e+10
          169   1.33626e+10
          170   1.33626e+10
          171   1.33626e+10
          172   1.33626e+10
          173   1.33626e+10
          174   1.33626e+10
          175   1.33626e+10
          176   1.33626e+10
          177   1.33626e+10
          178   1.33626e+10
          179   1.33626e+10
          180   1.33626e+10
          181   1.33626e+10
          182   1.33626e+10
          183   1.33626e+10
          184   1.33626e+10
          185   1.33626e+10
          186   1.33626e+10
          187   1.33626e+10
          188   1.33626e+10
          189   1.33626e+10
          190   1.33626e+10
          191   1.33626e+10
          192   1.33626e+10
          193   1.33626e+10
          194   1.33626e+10
          195   1.33626e+10
          196   1.33626e+10
          197   1.33626e+10
          198   1.33626e+10
          199   1.33626e+10
          200   1.33626e+10
          201   1.33626e+10
          202   1.33626e+10
          203   1.33626e+10
          204   1.33626e+10
          205   1.33626e+10
          206   1.33626e+10
          207   1.33626e+10
          208   1.33626e+10
          209   1.33626e+10
          210   1.33626e+10
          211   1.33626e+10
          212   1.33626e+10
          213   1.33626e+10
          214   1.33626e+10
          215   1.33626e+10
          216   1.33626e+10
          217   1.33626e+10
          218   1.33626e+10
          219   1.33626e+10
          220   1.33626e+10
          221   1.33626e+10
          222   1.33626e+10
          223   1.33626e+10
          224   1.33626e+10
          225   1.33626e+10
          226   1.33626e+10
          227   1.33626e+10
          228   1.33626e+10
          229   1.33626e+10
          230   1.33626e+10
          231   1.33626e+10
          232   1.33626e+10
          233   1.33626e+10
          234   1.33626e+10
          235   1.33626e+10
          236   1.33626e+10
          237   1.33626e+10
          238   1.33626e+10
          239   1.33626e+10
          240   1.33626e+10
          241   1.33626e+10
          242   1.33626e+10
          243   1.33626e+10
          244   1.33626e+10
          245   1.33626e+10
          246   1.33626e+10
          247   1.33626e+10
          248   1.33626e+10
          249   1.33626e+10
          250   1.33626e+10
          251   1.33626e+10
          252   1.33626e+10
          253   1.33626e+10
          254   1.33626e+10
          255   1.33626e+10
          256   1.33626e+10
          257   1.33626e+10
          258   1.33626e+10
          259   1.33626e+10
          260   1.33626e+10
          261   1.33626e+10
          262   1.33626e+10
          263   1.33626e+10
          264   1.33626e+10
          265   1.33626e+10
          266   1.33626e+10
          267   1.33626e+10
          268   1.33626e+10
          269   1.33626e+10
          270   1.33626e+10
          271   1.33626e+10
          272   1.33626e+10
          273   1.33626e+10
          274   1.33626e+10
          275   1.33626e+10
          276   1.33626e+10
          277   1.33626e+10
          278   1.33626e+10
          279   1.33626e+10
          280   1.33626e+10
          281   1.33626e+10
          282   1.33626e+10
          283   1.33626e+10
          284   1.33626e+10
          285   1.33626e+10
          286   1.33626e+10
          287   1.33626e+10
          288   1.33626e+10
          289   1.33626e+10
          290   1.33626e+10
          291   1.33626e+10
          292   1.33626e+10
          293   1.33626e+10
          294   1.33626e+10
          295   1.33626e+10
          296   1.33626e+10
          297   1.33626e+10
          298   1.33626e+10
          299   1.33626e+10
          300   1.33626e+10
          301   1.33626e+10
          302   1.33626e+10
          303   1.33626e+10
          304   1.33626e+10
          305   1.33626e+10
          306   1.33626e+10
          307   1.33626e+10
          308   1.33626e+10
          309   1.33626e+10
          310   1.33626e+10
          311   1.33626e+10
          312   1.33626e+10
          313   1.33626e+10
          314   1.33626e+10
          315   1.33626e+10
          316   1.33626e+10
          317   1.33626e+10
          318   1.33626e+10
          319   1.33626e+10
          320   1.33626e+10
          321   1.33626e+10
          322   1.33626e+10
          323   1.33626e+10
          324   1.33626e+10
          325   1.33626e+10
          326   1.33626e+10
          327   1.33626e+10
          328   1.33626e+10
          329   1.33626e+10
          330   1.33626e+10
          331   1.33626e+10
          332   1.33626e+10
          333   1.33626e+10
          334   1.33626e+10
          335   1.33626e+10
          336   1.33626e+10
          337   1.33626e+10
          338   1.33626e+10
          339   1.33626e+10
          340   1.33626e+10
          341   1.33626e+10
          342   1.33626e+10
          343   1.33626e+10
          344   1.33626e+10
          345   1.33626e+10
          346   1.33626e+10
          347   1.33626e+10
          348   1.33626e+10
          349   1.33626e+10
          350   1.33626e+10
          351   1.33626e+10
          352   1.33626e+10
          353   1.33626e+10
          354   1.33626e+10
          355   1.33626e+10
          356   1.33626e+10
          357   1.33626e+10
          358   1.33626e+10
          359   1.33626e+10
          360   1.33626e+10
          361   1.33626e+10
          362   1.33626e+10
          363   1.33626e+10
          364   1.33626e+10
          365   1.33626e+10
          366   1.33626e+10
          367   1.33626e+10
          368   1.33626e+10
          369   1.33626e+10
          370   1.33626e+10
          371   1.33626e+10
          372   1.33626e+10
          373   1.33626e+10
          374   1.33626e+10
          375   1.33626e+10
          376   1.33626e+10
          377   1.33626e+10
          378   1.33626e+10
          379   1.33626e+10
          380   1.33626e+10
          381   1.33626e+10
          382   1.33626e+10
          383   1.33626e+10
          384   1.33626e+10
          385   1.33626e+10
          386   1.33626e+10
          387   1.33626e+10
          388   1.33626e+10
          389   1.33626e+10
          390   1.33626e+10
          391   1.33626e+10
          392   1.33626e+10
          393   1.33626e+10
          394   1.33626e+10
          395   1.33626e+10
          396   1.33626e+10
          397   1.33626e+10
          398   1.33626e+10
          399   1.33626e+10
          400   1.33626e+10
          401   1.33626e+10
          402   1.33626e+10
          403   1.33626e+10
          404   1.33626e+10
          405   1.33626e+10
          406   1.33626e+10
          407   1.33626e+10
          408   1.33626e+10
          409   1.33626e+10
          410   1.33626e+10
          411   1.33626e+10
          412   1.33626e+10
          413   1.33626e+10
          414   1.33626e+10
          415   1.33626e+10
          416   1.33626e+10
          417   1.33626e+10
          418   1.33626e+10
          419   1.33626e+10
          420   1.33626e+10
          421   1.33626e+10
          422   1.33626e+10
          423   1.33626e+10
          424   1.33626e+10
          425   1.33626e+10
          426   1.33626e+10
          427   1.33626e+10
          428   1.33626e+10
          429   1.33626e+10
          430   1.33626e+10
          431   1.33626e+10
          432   1.33626e+10
          433   1.33626e+10
          434   1.33626e+10
          435   1.33626e+10
          436   1.33626e+10
          437   1.33626e+10
          438   1.33626e+10
          439   1.33626e+10
          440   1.33626e+10
          441   1.33626e+10
          442   1.33626e+10
          443   1.33626e+10
          444   1.33626e+10
          445   1.33626e+10
          446   1.33626e+10
          447   1.33626e+10
          448   1.33626e+10
          449   1.33626e+10
          450   1.33626e+10
          451   1.33626e+10
          452   1.33626e+10
          453   1.33626e+10
          454   1.33626e+10
          455   1.33626e+10
          456   1.33626e+10
          457   1.33626e+10
          458   1.33626e+10
          459   1.33626e+10
          460   1.33626e+10
          461   1.33626e+10
          462   1.33626e+10
          463   1.33626e+10
          464   1.33626e+10
          465   1.33626e+10
          466   1.33626e+10
          467   1.33626e+10
          468   1.33626e+10
          469   1.33626e+10
          470   1.33626e+10
          471   1.33626e+10
          472   1.33626e+10
          473   1.33626e+10
          474   1.33626e+10
          475   1.33626e+10
          476   1.33626e+10
          477   1.33626e+10
          478   1.33626e+10
          479   1.33626e+10
          480   1.33626e+10
          481   1.33626e+10
          482   1.33626e+10
          483   1.33626e+10
          484   1.33626e+10
          485   1.33626e+10
          486   1.33626e+10
          487   1.33626e+10
          488   1.33626e+10
          489   1.33626e+10
          490   1.33626e+10
          491   1.33626e+10
          492   1.33626e+10
          493   1.33626e+10
          494   1.33626e+10
          495   1.33626e+10
          496   1.33626e+10
          497   1.33626e+10
          498   1.33626e+10
          499   1.33626e+10
          500   1.33626e+10
          501   1.33626e+10
          502   1.33626e+10
          503   1.33626e+10
          504   1.33626e+10
          505   1.33626e+10
          506   1.33626e+10
          507   1.33626e+10
          508   1.33626e+10
          509   1.33626e+10
          510   1.33626e+10
          511   1.33626e+10
          512   1.33626e+10
          513   1.33626e+10
          514   1.33626e+10
          515   1.33626e+10
          516   1.33626e+10
          517   1.33626e+10
          518   1.33626e+10
          519   1.33626e+10
          520   1.33626e+10
          521   1.33626e+10
          522   1.33626e+10
          523   1.33626e+10
          524   1.33626e+10
          525   1.33626e+10
          526   1.33626e+10
          527   1.33626e+10
          528   1.33626e+10
          529   1.33626e+10
          530   1.33626e+10
          531   1.33626e+10
          532   1.33626e+10
          533   1.33626e+10
          534   1.33626e+10
          535   1.33626e+10
          536   1.33626e+10
          537   1.33626e+10
          538   1.33626e+10
          539   1.33626e+10
          540   1.33626e+10
          541   1.33626e+10
          542   1.33626e+10
          543   1.33626e+10
          544   1.33626e+10
          545   1.33626e+10
          546   1.33626e+10
          547   1.33626e+10
          548   1.33626e+10
          549   1.33626e+10
          550   1.33626e+10
          551   1.33626e+10
          552   1.33626e+10
          553   1.33626e+10
          554   1.33626e+10
          555   1.33626e+10
          556   1.33626e+10
          557   1.33626e+10
          558   1.33626e+10
          559   1.33626e+10
          560   1.33626e+10
          561   1.33626e+10
          562   1.33626e+10
          563   1.33626e+10
          564   1.33626e+10
          565   1.33626e+10
          566   1.33626e+10
          567   1.33626e+10
          568   1.33626e+10
          569   1.33626e+10
          570   1.33626e+10
          571   1.33626e+10
          572   1.33626e+10
          573   1.33626e+10
          574   1.33626e+10
          575   1.33626e+10
          576   1.33626e+10
          577   1.33626e+10
          578   1.33626e+10
          579   1.33626e+10
          580   1.33626e+10
          581   1.33626e+10
          582   1.33626e+10
          583   1.33626e+10
          584   1.33626e+10
          585   1.33626e+10
          586   1.33626e+10
          587   1.33626e+10
          588   1.33626e+10
          589   1.33626e+10
          590   1.33626e+10
          591   1.33626e+10
          592   1.33626e+10
          593   1.33626e+10
          594   1.33626e+10
          595   1.33626e+10
          596   1.33626e+10
          597   1.33626e+10
          598   1.33626e+10
          599   1.33626e+10
          600   1.33626e+10
          601   1.33626e+10
          602   1.33626e+10
          603   1.33626e+10
          604   1.33626e+10
          605   1.33626e+10
          606   1.33626e+10
          607   1.33626e+10
          608   1.33626e+10
          609   1.33626e+10
          610   1.33626e+10
          611   1.33626e+10
          612   1.33626e+10
          613   1.33626e+10
          614   1.33626e+10
          615   1.33626e+10
          616   1.33626e+10
          617   1.33626e+10
          618   1.33626e+10
          619   1.33626e+10
          620   1.33626e+10
          621   1.33626e+10
          622   1.33626e+10
          623   1.33626e+10
          624   1.33626e+10
          625   1.33626e+10
          626   1.33626e+10
          627   1.33626e+10
          628   1.33626e+10
          629   1.33626e+10
          630   1.33626e+10
          631   1.33626e+10
          632   1.33626e+10
          633   1.33626e+10
          634   1.33626e+10
          635   1.33626e+10
          636   1.33626e+10
          637   1.33626e+10
          638   1.33626e+10
          639   1.33626e+10
          640   1.33626e+10
          641   1.33626e+10
          642   1.33626e+10
          643   1.33626e+10
          644   1.33626e+10
          645   1.33626e+10
          646   1.33626e+10
          647   1.33626e+10
          648   1.33626e+10
          649   1.33626e+10
          650   1.33626e+10
          651   1.33626e+10
          652   1.33626e+10
          653   1.33626e+10
          654   1.33626e+10
          655   1.33626e+10
          656   1.33626e+10
          657   1.33626e+10
          658   1.33626e+10
          659   1.33626e+10
          660   1.33626e+10
          661   1.33626e+10
          662   1.33626e+10
          663   1.33626e+10
          664   1.33626e+10
          665   1.33626e+10
          666   1.33626e+10
          667   1.33626e+10
          668   1.33626e+10
          669   1.33626e+10
          670   1.33626e+10
          671   1.33626e+10
          672   1.33626e+10
          673   1.33626e+10
          674   1.33626e+10
          675   1.33626e+10
          676   1.33626e+10
          677   1.33626e+10
          678   1.33626e+10
          679   1.33626e+10
          680   1.33626e+10
          681   1.33626e+10
          682   1.33626e+10
          683   1.33626e+10
          684   1.33626e+10
          685   1.33626e+10
          686   1.33626e+10
          687   1.33626e+10
          688   1.33626e+10
          689   1.33626e+10
          690   1.33626e+10
          691   1.33626e+10
          692   1.33626e+10
          693   1.33626e+10
          694   1.33626e+10
          695   1.33626e+10
          696   1.33626e+10
          697   1.33626e+10
          698   1.33626e+10
          699   1.33626e+10
          700   1.33626e+10
          701   1.33626e+10
          702   1.33626e+10
          703   1.33626e+10
          704   1.33626e+10
          705   1.33626e+10
          706   1.33626e+10
          707   1.33626e+10
          708   1.33626e+10
          709   1.33626e+10
          710   1.33626e+10
          711   1.33626e+10
          712   1.33626e+10
          713   1.33626e+10
          714   1.33626e+10
          715   1.33626e+10
          716   1.33626e+10
          717   1.33626e+10
          718   1.33626e+10
          719   1.33626e+10
          720   1.33626e+10
          721   1.33626e+10
          722   1.33626e+10
          723   1.33626e+10
          724   1.33626e+10
          725   1.33626e+10
          726   1.33626e+10
          727   1.33626e+10
          728   1.33626e+10
          729   1.33626e+10
          730   1.33626e+10
          731   1.33626e+10
          732   1.33626e+10
          733   1.33626e+10
          734   1.33626e+10
          735   1.33626e+10
          736   1.33626e+10
          737   1.33626e+10
          738   1.33626e+10
          739   1.33626e+10
          740   1.33626e+10
          741   1.33626e+10
          742   1.33626e+10
          743   1.33626e+10
          744   1.33626e+10
          745   1.33626e+10
          746   1.33626e+10
          747   1.33626e+10
          748   1.33626e+10
          749   1.33626e+10
          750   1.33626e+10
          751   1.33626e+10
          752   1.33626e+10
          753   1.33626e+10
          754   1.33626e+10
          755   1.33626e+10
          756   1.33626e+10
          757   1.33626e+10
          758   1.33626e+10
          759   1.33626e+10
          760   1.33626e+10
          761   1.33626e+10
          762   1.33626e+10
          763   1.33626e+10
          764   1.33626e+10
          765   1.33626e+10
          766   1.33626e+10
          767   1.33626e+10
          768   1.33626e+10
          769   1.33626e+10
          770   1.33626e+10
          771   1.33626e+10
          772   1.33626e+10
          773   1.33626e+10
          774   1.33626e+10
          775   1.33626e+10
          776   1.33626e+10
          777   1.33626e+10
          778   1.33626e+10
          779   1.33626e+10
          780   1.33626e+10
          781   1.33626e+10
          782   1.33626e+10
          783   1.33626e+10
          784   1.33626e+10
          785   1.33626e+10
          786   1.33626e+10
          787   1.33626e+10
          788   1.33626e+10
          789   1.33626e+10
          790   1.33626e+10
          791   1.33626e+10
          792   1.33626e+10
          793   1.33626e+10
          794   1.33626e+10
          795   1.33626e+10
          796   1.33626e+10
          797   1.33626e+10
          798   1.33626e+10
          799   1.33626e+10
          800   1.33626e+10
          801   1.33626e+10
          802   1.33626e+10
          803   1.33626e+10
          804   1.33626e+10
          805   1.33626e+10
          806   1.33626e+10
          807   1.33626e+10
          808   1.33626e+10
          809   1.33626e+10
          810   1.33626e+10
          811   1.33626e+10
          812   1.33626e+10
          813   1.33626e+10
          814   1.33626e+10
          815   1.33626e+10
          816   1.33626e+10
          817   1.33626e+10
          818   1.33626e+10
          819   1.33626e+10
          820   1.33626e+10
          821   1.33626e+10
          822   1.33626e+10
          823   1.33626e+10
          824   1.33626e+10
          825   1.33626e+10
          826   1.33626e+10
          827   1.33626e+10
          828   1.33626e+10
          829   1.33626e+10
          830   1.33626e+10
          831   1.33626e+10
          832   1.33626e+10
          833   1.33626e+10
          834   1.33626e+10
          835   1.33626e+10
          836   1.33626e+10
          837   1.33626e+10
          838   1.33626e+10
          839   1.33626e+10
          840   1.33626e+10
          841   1.33626e+10
          842   1.33626e+10
          843   1.33626e+10
          844   1.33626e+10
          845   1.33626e+10
          846   1.33626e+10
          847   1.33626e+10
          848   1.33626e+10
          849   1.33626e+10
          850   1.33626e+10
          851   1.33626e+10
          852   1.33626e+10
          853   1.33626e+10
          854   1.33626e+10
          855   1.33626e+10
          856   1.33626e+10
          857   1.33626e+10
          858   1.33626e+10
          859   1.33626e+10
          860   1.33626e+10
          861   1.33626e+10
          862   1.33626e+10
          863   1.33626e+10
          864   1.33626e+10
          865   1.33626e+10
          866   1.33626e+10
          867   1.33626e+10
          868   1.33626e+10
          869   1.33626e+10
          870   1.33626e+10
          871   1.33626e+10
          872   1.33626e+10
          873   1.33626e+10
          874   1.33626e+10
          875   1.33626e+10
          876   1.33626e+10
          877   1.33626e+10
          878   1.33626e+10
          879   1.33626e+10
          880   1.33626e+10
          881   1.33626e+10
          882   1.33626e+10
          883   1.33626e+10
          884   1.33626e+10
          885   1.33626e+10
          886   1.33626e+10
          887   1.33626e+10
          888   1.33626e+10
          889   1.33626e+10
          890   1.33626e+10
          891   1.33626e+10
          892   1.33626e+10
          893   1.33626e+10
          894   1.33626e+10
          895   1.33626e+10
          896   1.33626e+10
          897   1.33626e+10
          898   1.33626e+10
          899   1.33626e+10
          900   1.33626e+10
          901   1.33626e+10
          902   1.33626e+10
          903   1.33626e+10
          904   1.33626e+10
          905   1.33626e+10
          906   1.33626e+10
          907   1.33626e+10
          908   1.33626e+10
          909   1.33626e+10
          910   1.33626e+10
          911   1.33626e+10
          912   1.33626e+10
          913   1.33626e+10
          914   1.33626e+10
          915   1.33626e+10
          916   1.33626e+10
          917   1.33626e+10
          918   1.33626e+10
          919   1.33626e+10
          920   1.33626e+10
          921   1.33626e+10
          922   1.33626e+10
          923   1.33626e+10
          924   1.33626e+10
          925   1.33626e+10
          926   1.33626e+10
          927   1.33626e+10
          928   1.33626e+10
          929   1.33626e+10
          930   1.33626e+10
          931   1.33626e+10
          932   1.33626e+10
          933   1.33626e+10
          934   1.33626e+10
          935   1.33626e+10
          936   1.33626e+10
          937   1.33626e+10
          938   1.33626e+10
          939   1.33626e+10
          940   1.33626e+10
          941   1.33626e+10
          942   1.33626e+10
          943   1.33626e+10
          944   1.33626e+10
          945   1.33626e+10
          946   1.33626e+10
          947   1.33626e+10
          948   1.33626e+10
          949   1.33626e+10
          950   1.33626e+10
          951   1.33626e+10
          952   1.33626e+10
          953   1.33626e+10
          954   1.33626e+10
          955   1.33626e+10
          956   1.33626e+10
          957   1.33626e+10
          958   1.33626e+10
          959   1.33626e+10
          960   1.33626e+10
          961   1.33626e+10
          962   1.33626e+10
          963   1.33626e+10
          964   1.33626e+10
          965   1.33626e+10
          966   1.33626e+10
          967   1.33626e+10
          968   1.33626e+10
          969   1.33626e+10
          970   1.33626e+10
          971   1.33626e+10
          972   1.33626e+10
          973   1.33626e+10
          974   1.33626e+10
          975   1.33626e+10
          976   1.33626e+10
          977   1.33626e+10
          978   1.33626e+10
          979   1.33626e+10
          980   1.33626e+10
          981   1.33626e+10
          982   1.33626e+10
          983   1.33626e+10
          984   1.33626e+10
          985   1.33626e+10
          986   1.33626e+10
          987   1.33626e+10
          988   1.33626e+10
          989   1.33626e+10
          990   1.33626e+10
          991   1.33626e+10
          992   1.33626e+10
          993   1.33626e+10
          994   1.33626e+10
          995   1.33626e+10
          996   1.33626e+10
          997   1.33626e+10
          998   1.33626e+10
          999   1.33626e+10
         1000   1.33626e+10
         1001   1.33626e+10
         1002   1.33626e+10
         1003   1.33626e+10
         1004   1.33626e+10
         1005   1.33626e+10
         1006   1.33626e+10
         1007   1.33626e+10
         1008   1.33626e+10
         1009   1.33626e+10
         1010   1.33626e+10
         1011   1.33626e+10
         1012   1.33626e+10
         1013   1.33626e+10
         1014   1.33626e+10
         1015   1.33626e+10
         1016   1.33626e+10
         1017   1.33626e+10
         1018   1.33626e+10
         1019   1.33626e+10
         1020   1.33626e+10
         1021   1.33626e+10
         1022   1.33626e+10
         1023   1.33626e+10
         1024   1.33626e+10
         1025   1.33626e+10
         1026   1.33626e+10
         1027   1.33626e+10
         1028   1.33626e+10
         1029   1.33626e+10
         1030   1.33626e+10
         1031   1.33626e+10
         1032   1.33626e+10
         1033   1.33626e+10
         1034   1.33626e+10
         1035   1.33626e+10
         1036   1.33626e+10
         1037   1.33626e+10
         1038   1.33626e+10
         1039   1.33626e+10
         1040   1.33626e+10
         1041   1.33626e+10
         1042   1.33626e+10
         1043   1.33626e+10
         1044   1.33626e+10
         1045   1.33626e+10
         1046   1.33626e+10
         1047   1.33626e+10
         1048   1.33626e+10
         1049   1.33626e+10
         1050   1.33626e+10
         1051   1.33626e+10
         1052   1.33626e+10
         1053   1.33626e+10
         1054   1.33626e+10
         1055   1.33626e+10
         1056   1.33626e+10
         1057   1.33626e+10
         1058   1.33626e+10
         1059   1.33626e+10
         1060   1.33626e+10
         1061   1.33626e+10
         1062   1.33626e+10
         1063   1.33626e+10
         1064   1.33626e+10
         1065   1.33626e+10
         1066   1.33626e+10
         1067   1.33626e+10
         1068   1.33626e+10