# Probe 0 (0.05 0.05 0.005)
#       Probe             0
#        Time
            1       17.0038
            2       17.0038
            3       17.0038
            4       17.0038
            5       17.0038
            6       17.0038
            7       17.0038
            8       17.0038
            9       17.0038
           10       17.0038
           11       17.0038
           12       17.0038
           13       17.0038
           14       17.0038
           15       17.0038
           16       17.0038
           17       17.0038
           18       17.0038
           19       17.0038
           20       17.0038
           21       17.0038
           22       17.0038
           23       17.0038
           24       17.0038
           25       17.0038
           26       17.0038
           27       17.0038
           28       17.0038
           29       17.0038
           30       17.0038
           31       17.0038
           32       17.0038
           33       17.0038
           34       17.0038
           35       17.0038
           36       17.0038
           37       17.0038
           38       17.0038
           39       17.0038
           40       17.0038
           41       17.0038
           42       17.0038
           43       17.0038
           44       17.0038
           45       17.0038
           46       17.0038
           47       17.0038
           48       17.0038
           49       17.0038
           50       17.0038
           51       17.0038
           52       17.0038
           53       17.0038
           54       17.0038
           55       17.0038
           56       17.0038
           57       17.0038
           58       17.0038
           59       17.0038
           60       17.0038
           61       17.0038
           62       17.0038
           63       17.0038
           64       17.0038
           65       17.0038
           66       17.0038
           67       17.0038
           68       17.0038
           69       17.0038
           70       17.0038
           71       17.0038
           72       17.0038
           73       17.0038
           74       17.0038
           75       17.0038
           76       17.0038
           77       17.0038
           78       17.0038
           79       17.0038
           80       17.0038
           81       17.0038
           82       17.0038
           83       17.0038
           84       17.0038
           85       17.0038
           86       17.0038
           87       17.0038
           88       17.0038
           89       17.0038
           90       17.0038
           91       17.0038
           92       17.0038
           93       17.0038
           94       17.0038
           95       17.0038
           96       17.0038
           97       17.0038
           98       17.0038
           99       17.0038
          100       17.0038
          101       17.0038
          102       17.0038
          103       17.0038
          104       17.0038
          105       17.0038
          106       17.0038
          107       17.0038
          108       17.0038
          109       17.0038
          110       17.0038
          111       17.0038
          112       17.0038
          113       17.0038
          114       17.0038
          115       17.0038
          116       17.0038
          117       17.0038
          118       17.0038
          119       17.0038
          120       17.0038
          121       17.0038
          122       17.0038
          123       17.0038
          124       17.0038
          125       17.0038
          126       17.0038
          127       17.0038
          128       17.0038
          129       17.0038
          130       17.0038
          131       17.0038
          132       17.0038
          133       17.0038
          134       17.0038
          135       17.0038
          136       17.0038
          137       17.0038
          138       17.0038
          139       17.0038
          140       17.0038
          141       17.0038
          142       17.0038
          143       17.0038
          144       17.0038
          145       17.0038
          146       17.0038
          147       17.0038
          148       17.0038
          149       17.0038
          150       17.0038
          151       17.0038
          152       17.0038
          153       17.0038
          154       17.0038
          155       17.0038
          156       17.0038
          157       17.0038
          158       17.0038
          159       17.0038
          160       17.0038
          161       17.0038
          162       17.0038
          163       17.0038
          164       17.0038
          165       17.0038
          166       17.0038
          167       17.0038
          168       17.0038
          169       17.0038
          170       17.0038
          171       17.0038
          172       17.0038
          173       17.0038
          174       17.0038
          175       17.0038
          176       17.0038
          177       17.0038
          178       17.0038
          179       17.0038
          180       17.0038
          181       17.0038
          182       17.0038
          183       17.0038
          184       17.0038
          185       17.0038
          186       17.0038
          187       17.0038
          188       17.0038
          189       17.0038
          190       17.0038
          191       17.0038
          192       17.0038
          193       17.0038
          194       17.0038
          195       17.0038
          196       17.0038
          197       17.0038
          198       17.0038
          199       17.0038
          200       17.0038
          201       17.0038
          202       17.0038
          203       17.0038
          204       17.0038
          205       17.0038
          206       17.0038
          207       17.0038
          208       17.0038
          209       17.0038
          210       17.0038
          211       17.0038
          212       17.0038
          213       17.0038
          214       17.0038
          215       17.0038
          216       17.0038
          217       17.0038
          218       17.0038
          219       17.0038
          220       17.0038
          221       17.0038
          222       17.0038
          223       17.0038
          224       17.0038
          225       17.0038
          226       17.0038
          227       17.0038
          228       17.0038
          229       17.0038
          230       17.0038
          231       17.0038
          232       17.0038
          233       17.0038
          234       17.0038
          235       17.0038
          236       17.0038
          237       17.0038
          238       17.0038
          239       17.0038
          240       17.0038
          241       17.0038
          242       17.0038
          243       17.0038
          244       17.0038
          245       17.0038
          246       17.0038
          247       17.0038
          248       17.0038
          249       17.0038
          250       17.0038
          251       17.0038
          252       17.0038
          253       17.0038
          254       17.0038
          255       17.0038
          256       17.0038
          257       17.0038
          258       17.0038
          259       17.0038
          260       17.0038
          261       17.0038
          262       17.0038
          263       17.0038
          264       17.0038
          265       17.0038
          266       17.0038
          267       17.0038
          268       17.0038
          269       17.0038
          270       17.0038
          271       17.0038
          272       17.0038
          273       17.0038
          274       17.0038
          275       17.0038
          276       17.0038
          277       17.0038
          278       17.0038
          279       17.0038
          280       17.0038
          281       17.0038
          282       17.0038
          283       17.0038
          284       17.0038
          285       17.0038
          286       17.0038
          287       17.0038
          288       17.0038
          289       17.0038
          290       17.0038
          291       17.0038
          292       17.0038
          293       17.0038
          294       17.0038
          295       17.0038
          296       17.0038
          297       17.0038
          298       17.0038
          299       17.0038
          300       17.0038
          301       17.0038
          302       17.0038
          303       17.0038
          304       17.0038
          305       17.0038
          306       17.0038
          307       17.0038
          308       17.0038
          309       17.0038
          310       17.0038
          311       17.0038
          312       17.0038
          313       17.0038
          314       17.0038
          315       17.0038
          316       17.0038
          317       17.0038
          318       17.0038
          319       17.0038
          320       17.0038
          321       17.0038
          322       17.0038
          323       17.0038
          324       17.0038
          325       17.0038
          326       17.0038
          327       17.0038
          328       17.0038
          329       17.0038
          330       17.0038
          331       17.0038
          332       17.0038
          333       17.0038
          334       17.0038
          335       17.0038
          336       17.0038
          337       17.0038
          338       17.0038
          339       17.0038
          340       17.0038
          341       17.0038
          342       17.0038
          343       17.0038
          344       17.0038
          345       17.0038
          346       17.0038
          347       17.0038
          348       17.0038
          349       17.0038
          350       17.0038
          351       17.0038
          352       17.0038
          353       17.0038
          354       17.0038
          355       17.0038
          356       17.0038
          357       17.0038
          358       17.0038
          359       17.0038
          360       17.0038
          361       17.0038
          362       17.0038
          363       17.0038
          364       17.0038
          365       17.0038
          366       17.0038
          367       17.0038
          368       17.0038
          369       17.0038
          370       17.0038
          371       17.0038
          372       17.0038
          373       17.0038
          374       17.0038
          375       17.0038
          376       17.0038
          377       17.0038
          378       17.0038
          379       17.0038
          380       17.0038
          381       17.0038
          382       17.0038
          383       17.0038
          384       17.0038
          385       17.0038
          386       17.0038
          387       17.0038
          388       17.0038
          389       17.0038
          390       17.0038
          391       17.0038
          392       17.0038
          393       17.0038
          394       17.0038
          395       17.0038
          396       17.0038
          397       17.0038
          398       17.0038
          399       17.0038
          400       17.0038
          401       17.0038
          402       17.0038
          403       17.0038
          404       17.0038
          405       17.0038
          406       17.0038
          407       17.0038
          408       17.0038
          409       17.0038
          410       17.0038
          411       17.0038
          412       17.0038
          413       17.0038
          414       17.0038
          415       17.0038
          416       17.0038
          417       17.0038
          418       17.0038
          419       17.0038
          420       17.0038
          421       17.0038
          422       17.0038
          423       17.0038
          424       17.0038
          425       17.0038
          426       17.0038
          427       17.0038
          428       17.0038
          429       17.0038
          430       17.0038
          431       17.0038
          432       17.0038
          433       17.0038
          434       17.0038
          435       17.0038
          436       17.0038
          437       17.0038
          438       17.0038
          439       17.0038
          440       17.0038
          441       17.0038
          442       17.0038
          443       17.0038
          444       17.0038
          445       17.0038
          446       17.0038
          447       17.0038
          448       17.0038
          449       17.0038
          450       17.0038
          451       17.0038
          452       17.0038
          453       17.0038
          454       17.0038
          455       17.0038
          456       17.0038
          457       17.0038
          458       17.0038
          459       17.0038
          460       17.0038
          461       17.0038
          462       17.0038
          463       17.0038
          464       17.0038
          465       17.0038
          466       17.0038
          467       17.0038
          468       17.0038
          469       17.0038
          470       17.0038
          471       17.0038
          472       17.0038
          473       17.0038
          474       17.0038
          475       17.0038
          476       17.0038
          477       17.0038
          478       17.0038
          479       17.0038
          480       17.0038
          481       17.0038
          482       17.0038
          483       17.0038
          484       17.0038
          485       17.0038
          486       17.0038
          487       17.0038
          488       17.0038
          489       17.0038
          490       17.0038
          491       17.0038
          492       17.0038
          493       17.0038
          494       17.0038
          495       17.0038
          496       17.0038
          497       17.0038
          498       17.0038
          499       17.0038
          500       17.0038
          501       17.0038
          502       17.0038
          503       17.0038
          504       17.0038
          505       17.0038
          506       17.0038
          507       17.0038
          508       17.0038
          509       17.0038
          510       17.0038
          511       17.0038
          512       17.0038
          513       17.0038
          514       17.0038
          515       17.0038
          516       17.0038
          517       17.0038
          518       17.0038
          519       17.0038
          520       17.0038
          521       17.0038
          522       17.0038
          523       17.0038
          524       17.0038
          525       17.0038
          526       17.0038
          527       17.0038
          528       17.0038
          529       17.0038
          530       17.0038
          531       17.0038
          532       17.0038
          533       17.0038
          534       17.0038
          535       17.0038
          536       17.0038
          537       17.0038
          538       17.0038
          539       17.0038
          540       17.0038
          541       17.0038
          542       17.0038
          543       17.0038
          544       17.0038
          545       17.0038
          546       17.0038
          547       17.0038
          548       17.0038
          549       17.0038
          550       17.0038
          551       17.0038
          552       17.0038
          553       17.0038
          554       17.0038
          555       17.0038
          556       17.0038
          557       17.0038
          558       17.0038
          559       17.0038
          560       17.0038
          561       17.0038
          562       17.0038
          563       17.0038
          564       17.0038
          565       17.0038
          566       17.0038
          567       17.0038
          568       17.0038
          569       17.0038
          570       17.0038
          571       17.0038
          572       17.0038
          573       17.0038
          574       17.0038
          575       17.0038
          576       17.0038
          577       17.0038
          578       17.0038
          579       17.0038
          580       17.0038
          581       17.0038
          582       17.0038
          583       17.0038
          584       17.0038
          585       17.0038
          586       17.0038
          587       17.0038
          588       17.0038
          589       17.0038
          590       17.0038
          591       17.0038
          592       17.0038
          593       17.0038
          594       17.0038
          595       17.0038
          596       17.0038
          597       17.0038
          598       17.0038
          599       17.0038
          600       17.0038
          601       17.0038
          602       17.0038
          603       17.0038
          604       17.0038
          605       17.0038
          606       17.0038
          607       17.0038
          608       17.0038
          609       17.0038
          610       17.0038
          611       17.0038
          612       17.0038
          613       17.0038
          614       17.0038
          615       17.0038
          616       17.0038
          617       17.0038
          618       17.0038
          619       17.0038
          620       17.0038
          621       17.0038
          622       17.0038
          623       17.0038
          624       17.0038
          625       17.0038
          626       17.0038
          627       17.0038
          628       17.0038
          629       17.0038
          630       17.0038
          631       17.0038
          632       17.0038
          633       17.0038
          634       17.0038
          635       17.0038
          636       17.0038
          637       17.0038
          638       17.0038
          639       17.0038
          640       17.0038
          641       17.0038
          642       17.0038
          643       17.0038
          644       17.0038
          645       17.0038
          646       17.0038
          647       17.0038
          648       17.0038
          649       17.0038
          650       17.0038
          651       17.0038
          652       17.0038
          653       17.0038
          654       17.0038
          655       17.0038
          656       17.0038
          657       17.0038
          658       17.0038
          659       17.0038
          660       17.0038
          661       17.0038
          662       17.0038
          663       17.0038
          664       17.0038
          665       17.0038
          666       17.0038
          667       17.0038
          668       17.0038
          669       17.0038
          670       17.0038
          671       17.0038
          672       17.0038
          673       17.0038
          674       17.0038
          675       17.0038
          676       17.0038
          677       17.0038
          678       17.0038
          679       17.0038
          680       17.0038
          681       17.0038
          682       17.0038
          683       17.0038
          684       17.0038
          685       17.0038
          686       17.0038
          687       17.0038
          688       17.0038
          689       17.0038
          690       17.0038
          691       17.0038
          692       17.0038
          693       17.0038
          694       17.0038
          695       17.0038
          696       17.0038
          697       17.0038
          698       17.0038
          699       17.0038
          700       17.0038
          701       17.0038
          702       17.0038
          703       17.0038
          704       17.0038
          705       17.0038
          706       17.0038
          707       17.0038
          708       17.0038
          709       17.0038
          710       17.0038
          711       17.0038
          712       17.0038
          713       17.0038
          714       17.0038
          715       17.0038
          716       17.0038
          717       17.0038
          718       17.0038
          719       17.0038
          720       17.0038
          721       17.0038
          722       17.0038
          723       17.0038
          724       17.0038
          725       17.0038
          726       17.0038
          727       17.0038
          728       17.0038
          729       17.0038
          730       17.0038
          731       17.0038
          732       17.0038
          733       17.0038
          734       17.0038
          735       17.0038
          736       17.0038
          737       17.0038
          738       17.0038
          739       17.0038
          740       17.0038
          741       17.0038
          742       17.0038
          743       17.0038
          744       17.0038
          745       17.0038
          746       17.0038
          747       17.0038
          748       17.0038
          749       17.0038
          750       17.0038
          751       17.0038
          752       17.0038
          753       17.0038
          754       17.0038
          755       17.0038
          756       17.0038
          757       17.0038
          758       17.0038
          759       17.0038
          760       17.0038
          761       17.0038
          762       17.0038
          763       17.0038
          764       17.0038
          765       17.0038
          766       17.0038
          767       17.0038
          768       17.0038
          769       17.0038
          770       17.0038
          771       17.0038
          772       17.0038
          773       17.0038
          774       17.0038
          775       17.0038
          776       17.0038
          777       17.0038
          778       17.0038
          779       17.0038
          780       17.0038
          781       17.0038
          782       17.0038
          783       17.0038
          784       17.0038
          785       17.0038
          786       17.0038
          787       17.0038
          788       17.0038
          789       17.0038
          790       17.0038
          791       17.0038
          792       17.0038
          793       17.0038
          794       17.0038
          795       17.0038
          796       17.0038
          797       17.0038
          798       17.0038
          799       17.0038
          800       17.0038
          801       17.0038
          802       17.0038
          803       17.0038
          804       17.0038
          805       17.0038
          806       17.0038
          807       17.0038
          808       17.0038
          809       17.0038
          810       17.0038
          811       17.0038
          812       17.0038
          813       17.0038
          814       17.0038
          815       17.0038
          816       17.0038
          817       17.0038
          818       17.0038
          819       17.0038
          820       17.0038
          821       17.0038
          822       17.0038
          823       17.0038
          824       17.0038
          825       17.0038
          826       17.0038
          827       17.0038
          828       17.0038
          829       17.0038
          830       17.0038
          831       17.0038
          832       17.0038
          833       17.0038
          834       17.0038
          835       17.0038
          836       17.0038
          837       17.0038
          838       17.0038
          839       17.0038
          840       17.0038
          841       17.0038
          842       17.0038
          843       17.0038
          844       17.0038
          845       17.0038
          846       17.0038
          847       17.0038
          848       17.0038
          849       17.0038
          850       17.0038
          851       17.0038
          852       17.0038
          853       17.0038
          854       17.0038
          855       17.0038
          856       17.0038
          857       17.0038
          858       17.0038
          859       17.0038
          860       17.0038
          861       17.0038
          862       17.0038
          863       17.0038
          864       17.0038
          865       17.0038
          866       17.0038
          867       17.0038
          868       17.0038
          869       17.0038
          870       17.0038
          871       17.0038
          872       17.0038
          873       17.0038
          874       17.0038
          875       17.0038
          876       17.0038
          877       17.0038
          878       17.0038
          879       17.0038
          880       17.0038
          881       17.0038
          882       17.0038
          883       17.0038
          884       17.0038
          885       17.0038
          886       17.0038
          887       17.0038
          888       17.0038
          889       17.0038
          890       17.0038
          891       17.0038
          892       17.0038
          893       17.0038
          894       17.0038
          895       17.0038
          896       17.0038
          897       17.0038
          898       17.0038
          899       17.0038
          900       17.0038
          901       17.0038
          902       17.0038
          903       17.0038
          904       17.0037
          905       17.0037
          906       17.0037
          907       17.0037
          908       17.0037
          909       17.0037
          910       17.0037
          911       17.0037
          912       17.0037
          913       17.0037
          914       17.0037
          915       17.0037
          916       17.0037
          917       17.0037
          918       17.0037
          919       17.0037
          920       17.0037
          921       17.0037
          922       17.0037
          923       17.0037
          924       17.0037
          925       17.0037
          926       17.0037
          927       17.0037
          928       17.0037
          929       17.0037
          930       17.0037
          931       17.0037
          932       17.0037
          933       17.0037
          934       17.0037
          935       17.0037
          936       17.0037
          937       17.0037
          938       17.0037
          939       17.0037
          940       17.0037
          941       17.0037
          942       17.0037
          943       17.0037
          944       17.0037
          945       17.0037
          946       17.0037
          947       17.0037
          948       17.0037
          949       17.0037
          950       17.0037
          951       17.0037
          952       17.0037
          953       17.0037
          954       17.0037
          955       17.0037
          956       17.0037
          957       17.0037
          958       17.0037
          959       17.0037
          960       17.0037
          961       17.0037
          962       17.0037
          963       17.0037
          964       17.0037
          965       17.0037
          966       17.0037
          967       17.0037
          968       17.0037
          969       17.0037
          970       17.0037
          971       17.0037
          972       17.0037
          973       17.0037
          974       17.0037
          975       17.0037
          976       17.0037
          977       17.0037
          978       17.0037
          979       17.0037
          980       17.0037
          981       17.0037
          982       17.0037
          983       17.0037
          984       17.0037
          985       17.0037
          986       17.0037
          987       17.0037
          988       17.0037
          989       17.0037
          990       17.0037
          991       17.0037
          992       17.0037
          993       17.0037
          994       17.0037
          995       17.0037
          996       17.0037
          997       17.0037
          998       17.0037
          999       17.0037
         1000       17.0037
         1001       17.0037
         1002       17.0037
         1003       17.0037
         1004       17.0037
         1005       17.0037
         1006       17.0037
         1007       17.0037
         1008       17.0037
         1009       17.0037
         1010       17.0037
         1011       17.0037
         1012       17.0037
         1013       17.0037
         1014       17.0037
         1015       17.0037
         1016       17.0037
         1017       17.0037
         1018       17.0037
         1019       17.0037
         1020       17.0037
         1021       17.0037
         1022       17.0037
         1023       17.0037
         1024       17.0037
         1025       17.0037
         1026       17.0037
         1027       17.0037
         1028       17.0037
         1029       17.0037
         1030       17.0037
         1031       17.0037
         1032       17.0037
         1033       17.0037
         1034       17.0037
         1035       17.0037
         1036       17.0037
         1037       17.0037
         1038       17.0037
         1039       17.0037
         1040       17.0037
         1041       17.0037
         1042       17.0037
         1043       17.0037
         1044       17.0037
         1045       17.0037
         1046       17.0037
         1047       17.0037
         1048       17.0037
         1049       17.0037
         1050       17.0037
         1051       17.0037
         1052       17.0037
         1053       17.0037
         1054       17.0037
         1055       17.0037
         1056       17.0037
         1057       17.0037
         1058       17.0037
         1059       17.0037
         1060       17.0037
         1061       17.0037
         1062       17.0037
         1063       17.0037
         1064       17.0037
         1065       17.0037
         1066       17.0037
         1067       17.0037
         1068       17.0037