# Probe 0 (0.05 0.05 0.005)
#       Probe             0
#        Time
            1   0.000715723
            2   0.000715723
            3   0.000715723
            4   0.000715723
            5   0.000715723
            6   0.000715723
            7   0.000715723
            8   0.000715723
            9   0.000715723
           10   0.000715723
           11   0.000715723
           12   0.000715723
           13   0.000715723
           14   0.000715723
           15   0.000715723
           16   0.000715723
           17   0.000715723
           18   0.000715723
           19   0.000715723
           20   0.000715723
           21   0.000715723
           22   0.000715723
           23   0.000715723
           24   0.000715723
           25   0.000715723
           26   0.000715723
           27   0.000715723
           28   0.000715723
           29   0.000715723
           30   0.000715723
           31   0.000715723
           32   0.000715723
           33   0.000715723
           34   0.000715723
           35   0.000715723
           36   0.000715723
           37   0.000715723
           38   0.000715723
           39   0.000715723
           40   0.000715723
           41   0.000715723
           42   0.000715723
           43   0.000715723
           44   0.000715723
           45   0.000715723
           46   0.000715723
           47   0.000715723
           48   0.000715723
           49   0.000715723
           50   0.000715723
           51   0.000715723
           52   0.000715723
           53   0.000715723
           54   0.000715723
           55   0.000715723
           56   0.000715723
           57   0.000715723
           58   0.000715723
           59   0.000715723
           60   0.000715723
           61   0.000715723
           62   0.000715723
           63   0.000715723
           64   0.000715723
           65   0.000715723
           66   0.000715723
           67   0.000715723
           68   0.000715723
           69   0.000715723
           70   0.000715723
           71   0.000715723
           72   0.000715723
           73   0.000715723
           74   0.000715723
           75   0.000715723
           76   0.000715723
           77   0.000715723
           78   0.000715723
           79   0.000715723
           80   0.000715723
           81   0.000715723
           82   0.000715723
           83   0.000715723
           84   0.000715723
           85   0.000715723
           86   0.000715723
           87   0.000715723
           88   0.000715723
           89   0.000715723
           90   0.000715723
           91   0.000715723
           92   0.000715723
           93   0.000715723
           94   0.000715723
           95   0.000715723
           96   0.000715723
           97   0.000715723
           98   0.000715723
           99   0.000715723
          100   0.000715723
          101   0.000715723
          102   0.000715723
          103   0.000715723
          104   0.000715723
          105   0.000715723
          106   0.000715723
          107   0.000715723
          108   0.000715723
          109   0.000715723
          110   0.000715723
          111   0.000715723
          112   0.000715723
          113   0.000715723
          114   0.000715723
          115   0.000715723
          116   0.000715723
          117   0.000715723
          118   0.000715723
          119   0.000715723
          120   0.000715723
          121   0.000715723
          122   0.000715723
          123   0.000715723
          124   0.000715723
          125   0.000715723
          126   0.000715723
          127   0.000715723
          128   0.000715723
          129   0.000715723
          130   0.000715723
          131   0.000715723
          132   0.000715723
          133   0.000715723
          134   0.000715723
          135   0.000715723
          136   0.000715723
          137   0.000715723
          138   0.000715723
          139   0.000715723
          140   0.000715723
          141   0.000715723
          142   0.000715723
          143   0.000715723
          144   0.000715723
          145   0.000715723
          146   0.000715723
          147   0.000715723
          148   0.000715723
          149   0.000715723
          150   0.000715723
          151   0.000715723
          152   0.000715723
          153   0.000715723
          154   0.000715723
          155   0.000715723
          156   0.000715723
          157   0.000715723
          158   0.000715723
          159   0.000715723
          160   0.000715723
          161   0.000715723
          162   0.000715723
          163   0.000715723
          164   0.000715723
          165   0.000715723
          166   0.000715723
          167   0.000715723
          168   0.000715723
          169   0.000715723
          170   0.000715723
          171   0.000715723
          172   0.000715723
          173   0.000715723
          174   0.000715723
          175   0.000715723
          176   0.000715723
          177   0.000715723
          178   0.000715723
          179   0.000715723
          180   0.000715723
          181   0.000715723
          182   0.000715723
          183   0.000715723
          184   0.000715723
          185   0.000715723
          186   0.000715723
          187   0.000715723
          188   0.000715723
          189   0.000715723
          190   0.000715723
          191   0.000715723
          192   0.000715723
          193   0.000715723
          194   0.000715723
          195   0.000715723
          196   0.000715723
          197   0.000715723
          198   0.000715723
          199   0.000715723
          200   0.000715723
          201   0.000715723
          202   0.000715723
          203   0.000715723
          204   0.000715723
          205   0.000715723
          206   0.000715723
          207   0.000715723
          208   0.000715723
          209   0.000715723
          210   0.000715723
          211   0.000715723
          212   0.000715723
          213   0.000715723
          214   0.000715723
          215   0.000715723
          216   0.000715723
          217   0.000715723
          218   0.000715723
          219   0.000715723
          220   0.000715723
          221   0.000715723
          222   0.000715723
          223   0.000715723
          224   0.000715723
          225   0.000715723
          226   0.000715723
          227   0.000715723
          228   0.000715723
          229   0.000715723
          230   0.000715723
          231   0.000715723
          232   0.000715723
          233   0.000715723
          234   0.000715723
          235   0.000715723
          236   0.000715723
          237   0.000715723
          238   0.000715723
          239   0.000715723
          240   0.000715723
          241   0.000715723
          242   0.000715723
          243   0.000715723
          244   0.000715723
          245   0.000715723
          246   0.000715723
          247   0.000715723
          248   0.000715723
          249   0.000715723
          250   0.000715723
          251   0.000715723
          252   0.000715723
          253   0.000715723
          254   0.000715723
          255   0.000715723
          256   0.000715723
          257   0.000715723
          258   0.000715723
          259   0.000715723
          260   0.000715723
          261   0.000715723
          262   0.000715723
          263   0.000715723
          264   0.000715723
          265   0.000715723
          266   0.000715723
          267   0.000715723
          268   0.000715723
          269   0.000715723
          270   0.000715723
          271   0.000715723
          272   0.000715723
          273   0.000715723
          274   0.000715723
          275   0.000715723
          276   0.000715723
          277   0.000715723
          278   0.000715723
          279   0.000715723
          280   0.000715723
          281   0.000715723
          282   0.000715723
          283   0.000715723
          284   0.000715723
          285   0.000715723
          286   0.000715723
          287   0.000715723
          288   0.000715723
          289   0.000715723
          290   0.000715723
          291   0.000715723
          292   0.000715723
          293   0.000715723
          294   0.000715723
          295   0.000715723
          296   0.000715723
          297   0.000715723
          298   0.000715723
          299   0.000715723
          300   0.000715723
          301   0.000715723
          302   0.000715723
          303   0.000715723
          304   0.000715723
          305   0.000715723
          306   0.000715723
          307   0.000715723
          308   0.000715723
          309   0.000715723
          310   0.000715723
          311   0.000715723
          312   0.000715723
          313   0.000715723
          314   0.000715723
          315   0.000715723
          316   0.000715723
          317   0.000715723
          318   0.000715723
          319   0.000715723
          320   0.000715723
          321   0.000715723
          322   0.000715723
          323   0.000715723
          324   0.000715723
          325   0.000715723
          326   0.000715723
          327   0.000715723
          328   0.000715723
          329   0.000715723
          330   0.000715723
          331   0.000715723
          332   0.000715723
          333   0.000715723
          334   0.000715723
          335   0.000715723
          336   0.000715723
          337   0.000715723
          338   0.000715723
          339   0.000715723
          340   0.000715723
          341   0.000715723
          342   0.000715723
          343   0.000715723
          344   0.000715723
          345   0.000715723
          346   0.000715723
          347   0.000715723
          348   0.000715723
          349   0.000715723
          350   0.000715723
          351   0.000715723
          352   0.000715723
          353   0.000715723
          354   0.000715723
          355   0.000715723
          356   0.000715723
          357   0.000715723
          358   0.000715723
          359   0.000715723
          360   0.000715723
          361   0.000715723
          362   0.000715723
          363   0.000715723
          364   0.000715723
          365   0.000715723
          366   0.000715723
          367   0.000715723
          368   0.000715723
          369   0.000715723
          370   0.000715723
          371   0.000715723
          372   0.000715723
          373   0.000715723
          374   0.000715723
          375   0.000715723
          376   0.000715723
          377   0.000715723
          378   0.000715723
          379   0.000715723
          380   0.000715723
          381   0.000715723
          382   0.000715723
          383   0.000715723
          384   0.000715723
          385   0.000715723
          386   0.000715723
          387   0.000715723
          388   0.000715723
          389   0.000715723
          390   0.000715723
          391   0.000715723
          392   0.000715723
          393   0.000715723
          394   0.000715723
          395   0.000715723
          396   0.000715723
          397   0.000715723
          398   0.000715723
          399   0.000715723
          400   0.000715723
          401   0.000715723
          402   0.000715723
          403   0.000715723
          404   0.000715723
          405   0.000715723
          406   0.000715723
          407   0.000715723
          408   0.000715723
          409   0.000715723
          410   0.000715723
          411   0.000715723
          412   0.000715723
          413   0.000715723
          414   0.000715723
          415   0.000715723
          416   0.000715723
          417   0.000715723
          418   0.000715723
          419   0.000715723
          420   0.000715723
          421   0.000715723
          422   0.000715723
          423   0.000715723
          424   0.000715723
          425   0.000715723
          426   0.000715723
          427   0.000715723
          428   0.000715723
          429   0.000715723
          430   0.000715723
          431   0.000715723
          432   0.000715723
          433   0.000715723
          434   0.000715723
          435   0.000715723
          436   0.000715723
          437   0.000715723
          438   0.000715723
          439   0.000715723
          440   0.000715723
          441   0.000715723
          442   0.000715723
          443   0.000715723
          444   0.000715723
          445   0.000715723
          446   0.000715723
          447   0.000715723
          448   0.000715723
          449   0.000715723
          450   0.000715723
          451   0.000715723
          452   0.000715723
          453   0.000715723
          454   0.000715723
          455   0.000715723
          456   0.000715723
          457   0.000715723
          458   0.000715723
          459   0.000715723
          460   0.000715723
          461   0.000715723
          462   0.000715723
          463   0.000715723
          464   0.000715723
          465   0.000715723
          466   0.000715723
          467   0.000715723
          468   0.000715723
          469   0.000715723
          470   0.000715723
          471   0.000715723
          472   0.000715723
          473   0.000715723
          474   0.000715723
          475   0.000715723
          476   0.000715723
          477   0.000715723
          478   0.000715723
          479   0.000715723
          480   0.000715723
          481   0.000715723
          482   0.000715723
          483   0.000715723
          484   0.000715723
          485   0.000715723
          486   0.000715723
          487   0.000715723
          488   0.000715723
          489   0.000715723
          490   0.000715723
          491   0.000715723
          492   0.000715723
          493   0.000715723
          494   0.000715723
          495   0.000715723
          496   0.000715723
          497   0.000715723
          498   0.000715723
          499   0.000715723
          500   0.000715723
          501   0.000715723
          502   0.000715723
          503   0.000715723
          504   0.000715723
          505   0.000715723
          506   0.000715723
          507   0.000715723
          508   0.000715723
          509   0.000715723
          510   0.000715723
          511   0.000715723
          512   0.000715723
          513   0.000715723
          514   0.000715723
          515   0.000715723
          516   0.000715723
          517   0.000715723
          518   0.000715723
          519   0.000715723
          520   0.000715723
          521   0.000715723
          522   0.000715723
          523   0.000715723
          524   0.000715723
          525   0.000715723
          526   0.000715723
          527   0.000715723
          528   0.000715723
          529   0.000715723
          530   0.000715723
          531   0.000715723
          532   0.000715723
          533   0.000715723
          534   0.000715723
          535   0.000715723
          536   0.000715723
          537   0.000715723
          538   0.000715723
          539   0.000715723
          540   0.000715723
          541   0.000715723
          542   0.000715723
          543   0.000715723
          544   0.000715723
          545   0.000715723
          546   0.000715723
          547   0.000715723
          548   0.000715723
          549   0.000715723
          550   0.000715723
          551   0.000715723
          552   0.000715723
          553   0.000715723
          554   0.000715723
          555   0.000715723
          556   0.000715723
          557   0.000715723
          558   0.000715723
          559   0.000715723
          560   0.000715723
          561   0.000715723
          562   0.000715723
          563   0.000715723
          564   0.000715723
          565   0.000715723
          566   0.000715723
          567   0.000715723
          568   0.000715723
          569   0.000715723
          570   0.000715723
          571   0.000715723
          572   0.000715723
          573   0.000715723
          574   0.000715723
          575   0.000715723
          576   0.000715723
          577   0.000715723
          578   0.000715723
          579   0.000715723
          580   0.000715723
          581   0.000715723
          582   0.000715723
          583   0.000715723
          584   0.000715723
          585   0.000715723
          586   0.000715723
          587   0.000715723
          588   0.000715723
          589   0.000715723
          590   0.000715723
          591   0.000715723
          592   0.000715723
          593   0.000715723
          594   0.000715723
          595   0.000715723
          596   0.000715723
          597   0.000715723
          598   0.000715723
          599   0.000715723
          600   0.000715723
          601   0.000715723
          602   0.000715723
          603   0.000715723
          604   0.000715723
          605   0.000715723
          606   0.000715723
          607   0.000715723
          608   0.000715723
          609   0.000715723
          610   0.000715723
          611   0.000715723
          612   0.000715723
          613   0.000715723
          614   0.000715723
          615   0.000715723
          616   0.000715723
          617   0.000715723
          618   0.000715723
          619   0.000715723
          620   0.000715723
          621   0.000715723
          622   0.000715723
          623   0.000715723
          624   0.000715723
          625   0.000715723
          626   0.000715723
          627   0.000715723
          628   0.000715723
          629   0.000715723
          630   0.000715723
          631   0.000715723
          632   0.000715723
          633   0.000715723
          634   0.000715723
          635   0.000715723
          636   0.000715723
          637   0.000715723
          638   0.000715723
          639   0.000715723
          640   0.000715723
          641   0.000715723
          642   0.000715723
          643   0.000715723
          644   0.000715723
          645   0.000715723
          646   0.000715723
          647   0.000715723
          648   0.000715723
          649   0.000715723
          650   0.000715723
          651   0.000715723
          652   0.000715723
          653   0.000715723
          654   0.000715723
          655   0.000715723
          656   0.000715723
          657   0.000715723
          658   0.000715723
          659   0.000715723
          660   0.000715723
          661   0.000715723
          662   0.000715723
          663   0.000715723
          664   0.000715723
          665   0.000715723
          666   0.000715723
          667   0.000715723
          668   0.000715723
          669   0.000715723
          670   0.000715723
          671   0.000715723
          672   0.000715723
          673   0.000715723
          674   0.000715723
          675   0.000715723
          676   0.000715723
          677   0.000715723
          678   0.000715723
          679   0.000715723
          680   0.000715723
          681   0.000715723
          682   0.000715723
          683   0.000715723
          684   0.000715723
          685   0.000715723
          686   0.000715723
          687   0.000715723
          688   0.000715723
          689   0.000715723
          690   0.000715723
          691   0.000715723
          692   0.000715723
          693   0.000715723
          694   0.000715723
          695   0.000715723
          696   0.000715723
          697   0.000715723
          698   0.000715723
          699   0.000715723
          700   0.000715723
          701   0.000715723
          702   0.000715723
          703   0.000715723
          704   0.000715723
          705   0.000715723
          706   0.000715723
          707   0.000715723
          708   0.000715723
          709   0.000715723
          710   0.000715723
          711   0.000715723
          712   0.000715723
          713   0.000715723
          714   0.000715723
          715   0.000715723
          716   0.000715723
          717   0.000715723
          718   0.000715723
          719   0.000715723
          720   0.000715723
          721   0.000715723
          722   0.000715723
          723   0.000715723
          724   0.000715723
          725   0.000715723
          726   0.000715723
          727   0.000715723
          728   0.000715723
          729   0.000715723
          730   0.000715723
          731   0.000715723
          732   0.000715723
          733   0.000715723
          734   0.000715723
          735   0.000715723
          736   0.000715723
          737   0.000715723
          738   0.000715723
          739   0.000715723
          740   0.000715723
          741   0.000715723
          742   0.000715723
          743   0.000715723
          744   0.000715723
          745   0.000715723
          746   0.000715723
          747   0.000715723
          748   0.000715723
          749   0.000715723
          750   0.000715723
          751   0.000715723
          752   0.000715723
          753   0.000715723
          754   0.000715723
          755   0.000715723
          756   0.000715723
          757   0.000715723
          758   0.000715723
          759   0.000715723
          760   0.000715723
          761   0.000715723
          762   0.000715723
          763   0.000715723
          764   0.000715723
          765   0.000715723
          766   0.000715723
          767   0.000715723
          768   0.000715723
          769   0.000715723
          770   0.000715723
          771   0.000715723
          772   0.000715723
          773   0.000715723
          774   0.000715723
          775   0.000715723
          776   0.000715723
          777   0.000715723
          778   0.000715723
          779   0.000715723
          780   0.000715723
          781   0.000715723
          782   0.000715723
          783   0.000715723
          784   0.000715723
          785   0.000715723
          786   0.000715723
          787   0.000715723
          788   0.000715723
          789   0.000715723
          790   0.000715723
          791   0.000715723
          792   0.000715723
          793   0.000715723
          794   0.000715723
          795   0.000715723
          796   0.000715723
          797   0.000715723
          798   0.000715723
          799   0.000715723
          800   0.000715723
          801   0.000715723
          802   0.000715723
          803   0.000715723
          804   0.000715723
          805   0.000715723
          806   0.000715723
          807   0.000715723
          808   0.000715723
          809   0.000715723
          810   0.000715723
          811   0.000715723
          812   0.000715723
          813   0.000715723
          814   0.000715723
          815   0.000715723
          816   0.000715723
          817   0.000715723
          818   0.000715723
          819   0.000715723
          820   0.000715723
          821   0.000715723
          822   0.000715723
          823   0.000715723
          824   0.000715723
          825   0.000715723
          826   0.000715723
          827   0.000715723
          828   0.000715723
          829   0.000715723
          830   0.000715723
          831   0.000715723
          832   0.000715723
          833   0.000715723
          834   0.000715723
          835   0.000715723
          836   0.000715723
          837   0.000715723
          838   0.000715723
          839   0.000715723
          840   0.000715723
          841   0.000715723
          842   0.000715723
          843   0.000715723
          844   0.000715723
          845   0.000715723
          846   0.000715723
          847   0.000715723
          848   0.000715723
          849   0.000715723
          850   0.000715723
          851   0.000715723
          852   0.000715723
          853   0.000715723
          854   0.000715723
          855   0.000715723
          856   0.000715723
          857   0.000715723
          858   0.000715723
          859   0.000715723
          860   0.000715723
          861   0.000715723
          862   0.000715723
          863   0.000715723
          864   0.000715723
          865   0.000715723
          866   0.000715723
          867   0.000715723
          868   0.000715723
          869   0.000715723
          870   0.000715723
          871   0.000715723
          872   0.000715723
          873   0.000715723
          874   0.000715723
          875   0.000715723
          876   0.000715723
          877   0.000715723
          878   0.000715723
          879   0.000715723
          880   0.000715723
          881   0.000715723
          882   0.000715723
          883   0.000715723
          884   0.000715723
          885   0.000715723
          886   0.000715723
          887   0.000715723
          888   0.000715723
          889   0.000715723
          890   0.000715723
          891   0.000715723
          892   0.000715723
          893   0.000715723
          894   0.000715723
          895   0.000715723
          896   0.000715723
          897   0.000715723
          898   0.000715723
          899   0.000715723
          900   0.000715723
          901   0.000715723
          902   0.000715723
          903   0.000715723
          904   0.000715723
          905   0.000715723
          906   0.000715723
          907   0.000715723
          908   0.000715723
          909   0.000715723
          910   0.000715723
          911   0.000715723
          912   0.000715723
          913   0.000715723
          914   0.000715723
          915   0.000715723
          916   0.000715723
          917   0.000715723
          918   0.000715723
          919   0.000715723
          920   0.000715723
          921   0.000715723
          922   0.000715723
          923   0.000715723
          924   0.000715723
          925   0.000715723
          926   0.000715723
          927   0.000715723
          928   0.000715723
          929   0.000715723
          930   0.000715723
          931   0.000715723
          932   0.000715723
          933   0.000715723
          934   0.000715723
          935   0.000715723
          936   0.000715723
          937   0.000715723
          938   0.000715723
          939   0.000715723
          940   0.000715723
          941   0.000715723
          942   0.000715723
          943   0.000715723
          944   0.000715723
          945   0.000715723
          946   0.000715723
          947   0.000715723
          948   0.000715723
          949   0.000715723
          950   0.000715723
          951   0.000715723
          952   0.000715723
          953   0.000715723
          954   0.000715723
          955   0.000715723
          956   0.000715723
          957   0.000715723
          958   0.000715723
          959   0.000715723
          960   0.000715723
          961   0.000715723
          962   0.000715722
          963   0.000715722
          964   0.000715722
          965   0.000715722
          966   0.000715722
          967   0.000715722
          968   0.000715722
          969   0.000715722
          970   0.000715722
          971   0.000715722
          972   0.000715722
          973   0.000715722
          974   0.000715722
          975   0.000715722
          976   0.000715722
          977   0.000715722
          978   0.000715722
          979   0.000715722
          980   0.000715722
          981   0.000715722
          982   0.000715722
          983   0.000715722
          984   0.000715722
          985   0.000715722
          986   0.000715722
          987   0.000715722
          988   0.000715722
          989   0.000715722
          990   0.000715722
          991   0.000715722
          992   0.000715722
          993   0.000715722
          994   0.000715722
          995   0.000715722
          996   0.000715722
          997   0.000715722
          998   0.000715722
          999   0.000715722
         1000   0.000715722
         1001   0.000715722
         1002   0.000715722
         1003   0.000715722
         1004   0.000715722
         1005   0.000715722
         1006   0.000715722
         1007   0.000715722
         1008   0.000715722
         1009   0.000715722
         1010   0.000715722
         1011   0.000715722
         1012   0.000715722
         1013   0.000715722
         1014   0.000715722
         1015   0.000715722
         1016   0.000715722
         1017   0.000715722
         1018   0.000715722
         1019   0.000715722
         1020   0.000715722
         1021   0.000715722
         1022   0.000715722
         1023   0.000715722
         1024   0.000715722
         1025   0.000715722
         1026   0.000715722
         1027   0.000715722
         1028   0.000715722
         1029   0.000715722
         1030   0.000715722
         1031   0.000715722
         1032   0.000715722
         1033   0.000715722
         1034   0.000715722
         1035   0.000715722
         1036   0.000715722
         1037   0.000715722
         1038   0.000715722
         1039   0.000715722
         1040   0.000715722
         1041   0.000715722
         1042   0.000715722
         1043   0.000715722
         1044   0.000715722
         1045   0.000715722
         1046   0.000715722
         1047   0.000715722
         1048   0.000715722
         1049   0.000715722
         1050   0.000715722
         1051   0.000715722
         1052   0.000715722
         1053   0.000715722
         1054   0.000715722
         1055   0.000715722
         1056   0.000715722
         1057   0.000715722
         1058   0.000715722
         1059   0.000715722
         1060   0.000715722
         1061   0.000715722
         1062   0.000715722
         1063   0.000715722
         1064   0.000715722
         1065   0.000715722
         1066   0.000715722
         1067   0.000715722
         1068   0.000715722