# Probe 0 (0.05 0.05 0.005)
#       Probe             0
#        Time
            1       18.0038
            2       18.0038
            3       18.0038
            4       18.0038
            5       18.0038
            6       18.0038
            7       18.0038
            8       18.0038
            9       18.0038
           10       18.0038
           11       18.0038
           12       18.0038
           13       18.0038
           14       18.0038
           15       18.0038
           16       18.0038
           17       18.0038
           18       18.0038
           19       18.0038
           20       18.0038
           21       18.0038
           22       18.0038
           23       18.0038
           24       18.0038
           25       18.0038
           26       18.0038
           27       18.0038
           28       18.0038
           29       18.0038
           30       18.0038
           31       18.0038
           32       18.0038
           33       18.0038
           34       18.0038
           35       18.0038
           36       18.0038
           37       18.0038
           38       18.0038
           39       18.0038
           40       18.0038
           41       18.0038
           42       18.0038
           43       18.0038
           44       18.0038
           45       18.0038
           46       18.0038
           47       18.0038
           48       18.0038
           49       18.0038
           50       18.0038
           51       18.0038
           52       18.0038
           53       18.0038
           54       18.0038
           55       18.0038
           56       18.0038
           57       18.0038
           58       18.0038
           59       18.0038
           60       18.0038
           61       18.0038
           62       18.0038
           63       18.0038
           64       18.0038
           65       18.0038
           66       18.0038
           67       18.0038
           68       18.0038
           69       18.0038
           70       18.0038
           71       18.0038
           72       18.0038
           73       18.0038
           74       18.0038
           75       18.0038
           76       18.0038
           77       18.0038
           78       18.0038
           79       18.0038
           80       18.0038
           81       18.0038
           82       18.0038
           83       18.0038
           84       18.0038
           85       18.0038
           86       18.0038
           87       18.0038
           88       18.0038
           89       18.0038
           90       18.0038
           91       18.0038
           92       18.0038
           93       18.0038
           94       18.0038
           95       18.0038
           96       18.0038
           97       18.0038
           98       18.0038
           99       18.0038
          100       18.0038
          101       18.0038
          102       18.0038
          103       18.0038
          104       18.0038
          105       18.0038
          106       18.0038
          107       18.0038
          108       18.0038
          109       18.0038
          110       18.0038
          111       18.0038
          112       18.0038
          113       18.0038
          114       18.0038
          115       18.0038
          116       18.0038
          117       18.0038
          118       18.0038
          119       18.0038
          120       18.0038
          121       18.0038
          122       18.0038
          123       18.0038
          124       18.0038
          125       18.0038
          126       18.0038
          127       18.0038
          128       18.0038
          129       18.0038
          130       18.0038
          131       18.0038
          132       18.0038
          133       18.0038
          134       18.0038
          135       18.0038
          136       18.0038
          137       18.0038
          138       18.0038
          139       18.0038
          140       18.0038
          141       18.0038
          142       18.0038
          143       18.0038
          144       18.0038
          145       18.0038
          146       18.0038
          147       18.0038
          148       18.0038
          149       18.0038
          150       18.0038
          151       18.0038
          152       18.0038
          153       18.0038
          154       18.0038
          155       18.0038
          156       18.0038
          157       18.0038
          158       18.0038
          159       18.0038
          160       18.0038
          161       18.0038
          162       18.0038
          163       18.0038
          164       18.0038
          165       18.0038
          166       18.0038
          167       18.0038
          168       18.0038
          169       18.0038
          170       18.0038
          171       18.0038
          172       18.0038
          173       18.0038
          174       18.0038
          175       18.0038
          176       18.0038
          177       18.0038
          178       18.0038
          179       18.0038
          180       18.0038
          181       18.0038
          182       18.0038
          183       18.0038
          184       18.0038
          185       18.0038
          186       18.0038
          187       18.0038
          188       18.0038
          189       18.0038
          190       18.0038
          191       18.0038
          192       18.0038
          193       18.0038
          194       18.0038
          195       18.0038
          196       18.0038
          197       18.0038
          198       18.0038
          199       18.0038
          200       18.0038
          201       18.0038
          202       18.0038
          203       18.0038
          204       18.0038
          205       18.0038
          206       18.0038
          207       18.0038
          208       18.0038
          209       18.0038
          210       18.0038
          211       18.0038
          212       18.0038
          213       18.0038
          214       18.0038
          215       18.0038
          216       18.0038
          217       18.0038
          218       18.0038
          219       18.0038
          220       18.0038
          221       18.0038
          222       18.0038
          223       18.0038
          224       18.0038
          225       18.0038
          226       18.0038
          227       18.0038
          228       18.0038
          229       18.0038
          230       18.0038
          231       18.0038
          232       18.0038
          233       18.0038
          234       18.0038
          235       18.0038
          236       18.0038
          237       18.0038
          238       18.0038
          239       18.0038
          240       18.0038
          241       18.0038
          242       18.0038
          243       18.0038
          244       18.0038
          245       18.0038
          246       18.0038
          247       18.0038
          248       18.0038
          249       18.0038
          250       18.0038
          251       18.0038
          252       18.0038
          253       18.0038
          254       18.0038
          255       18.0038
          256       18.0038
          257       18.0038
          258       18.0038
          259       18.0038
          260       18.0038
          261       18.0038
          262       18.0038
          263       18.0038
          264       18.0038
          265       18.0038
          266       18.0038
          267       18.0038
          268       18.0038
          269       18.0038
          270       18.0038
          271       18.0038
          272       18.0038
          273       18.0038
          274       18.0038
          275       18.0038
          276       18.0038
          277       18.0038
          278       18.0038
          279       18.0038
          280       18.0038
          281       18.0038
          282       18.0038
          283       18.0038
          284       18.0038
          285       18.0038
          286       18.0038
          287       18.0038
          288       18.0038
          289       18.0038
          290       18.0038
          291       18.0038
          292       18.0038
          293       18.0038
          294       18.0038
          295       18.0038
          296       18.0038
          297       18.0038
          298       18.0038
          299       18.0038
          300       18.0038
          301       18.0038
          302       18.0038
          303       18.0038
          304       18.0038
          305       18.0038
          306       18.0038
          307       18.0038
          308       18.0038
          309       18.0038
          310       18.0038
          311       18.0038
          312       18.0038
          313       18.0038
          314       18.0038
          315       18.0038
          316       18.0038
          317       18.0038
          318       18.0038
          319       18.0038
          320       18.0038
          321       18.0038
          322       18.0038
          323       18.0038
          324       18.0038
          325       18.0038
          326       18.0038
          327       18.0038
          328       18.0038
          329       18.0038
          330       18.0038
          331       18.0038
          332       18.0038
          333       18.0038
          334       18.0038
          335       18.0038
          336       18.0038
          337       18.0038
          338       18.0038
          339       18.0038
          340       18.0038
          341       18.0038
          342       18.0038
          343       18.0038
          344       18.0038
          345       18.0038
          346       18.0038
          347       18.0038
          348       18.0038
          349       18.0038
          350       18.0038
          351       18.0038
          352       18.0038
          353       18.0038
          354       18.0038
          355       18.0038
          356       18.0038
          357       18.0038
          358       18.0038
          359       18.0038
          360       18.0038
          361       18.0038
          362       18.0038
          363       18.0038
          364       18.0038
          365       18.0038
          366       18.0038
          367       18.0038
          368       18.0038
          369       18.0038
          370       18.0038
          371       18.0038
          372       18.0038
          373       18.0038
          374       18.0038
          375       18.0038
          376       18.0038
          377       18.0038
          378       18.0038
          379       18.0038
          380       18.0038
          381       18.0038
          382       18.0038
          383       18.0038
          384       18.0038
          385       18.0038
          386       18.0038
          387       18.0038
          388       18.0038
          389       18.0038
          390       18.0038
          391       18.0038
          392       18.0038
          393       18.0038
          394       18.0038
          395       18.0038
          396       18.0038
          397       18.0038
          398       18.0038
          399       18.0038
          400       18.0038
          401       18.0038
          402       18.0038
          403       18.0038
          404       18.0038
          405       18.0038
          406       18.0038
          407       18.0038
          408       18.0038
          409       18.0038
          410       18.0038
          411       18.0038
          412       18.0038
          413       18.0038
          414       18.0038
          415       18.0038
          416       18.0038
          417       18.0038
          418       18.0038
          419       18.0038
          420       18.0038
          421       18.0038
          422       18.0038
          423       18.0038
          424       18.0038
          425       18.0038
          426       18.0038
          427       18.0038
          428       18.0038
          429       18.0038
          430       18.0038
          431       18.0038
          432       18.0038
          433       18.0038
          434       18.0038
          435       18.0038
          436       18.0038
          437       18.0038
          438       18.0038
          439       18.0038
          440       18.0038
          441       18.0038
          442       18.0038
          443       18.0038
          444       18.0038
          445       18.0038
          446       18.0038
          447       18.0038
          448       18.0038
          449       18.0038
          450       18.0038
          451       18.0038
          452       18.0038
          453       18.0038
          454       18.0038
          455       18.0038
          456       18.0038
          457       18.0038
          458       18.0038
          459       18.0038
          460       18.0038
          461       18.0038
          462       18.0038
          463       18.0038
          464       18.0038
          465       18.0038
          466       18.0038
          467       18.0038
          468       18.0038
          469       18.0038
          470       18.0038
          471       18.0038
          472       18.0038
          473       18.0038
          474       18.0038
          475       18.0038
          476       18.0038
          477       18.0038
          478       18.0038
          479       18.0038
          480       18.0038
          481       18.0038
          482       18.0038
          483       18.0038
          484       18.0038
          485       18.0038
          486       18.0038
          487       18.0038
          488       18.0038
          489       18.0038
          490       18.0038
          491       18.0038
          492       18.0038
          493       18.0038
          494       18.0038
          495       18.0038
          496       18.0038
          497       18.0038
          498       18.0038
          499       18.0038
          500       18.0038
          501       18.0038
          502       18.0038
          503       18.0038
          504       18.0038
          505       18.0038
          506       18.0038
          507       18.0038
          508       18.0038
          509       18.0038
          510       18.0038
          511       18.0038
          512       18.0038
          513       18.0038
          514       18.0038
          515       18.0038
          516       18.0038
          517       18.0038
          518       18.0038
          519       18.0038
          520       18.0038
          521       18.0038
          522       18.0038
          523       18.0038
          524       18.0038
          525       18.0038
          526       18.0038
          527       18.0038
          528       18.0038
          529       18.0038
          530       18.0038
          531       18.0038
          532       18.0038
          533       18.0038
          534       18.0038
          535       18.0038
          536       18.0038
          537       18.0038
          538       18.0038
          539       18.0038
          540       18.0038
          541       18.0038
          542       18.0038
          543       18.0038
          544       18.0038
          545       18.0038
          546       18.0038
          547       18.0038
          548       18.0038
          549       18.0038
          550       18.0038
          551       18.0038
          552       18.0038
          553       18.0038
          554       18.0038
          555       18.0038
          556       18.0038
          557       18.0038
          558       18.0038
          559       18.0038
          560       18.0038
          561       18.0038
          562       18.0038
          563       18.0038
          564       18.0038
          565       18.0038
          566       18.0038
          567       18.0038
          568       18.0038
          569       18.0038
          570       18.0038
          571       18.0038
          572       18.0038
          573       18.0038
          574       18.0038
          575       18.0038
          576       18.0038
          577       18.0038
          578       18.0038
          579       18.0038
          580       18.0038
          581       18.0038
          582       18.0038
          583       18.0038
          584       18.0038
          585       18.0038
          586       18.0038
          587       18.0038
          588       18.0038
          589       18.0038
          590       18.0038
          591       18.0038
          592       18.0038
          593       18.0038
          594       18.0038
          595       18.0038
          596       18.0038
          597       18.0038
          598       18.0038
          599       18.0038
          600       18.0038
          601       18.0038
          602       18.0038
          603       18.0038
          604       18.0038
          605       18.0038
          606       18.0038
          607       18.0038
          608       18.0038
          609       18.0038
          610       18.0038
          611       18.0038
          612       18.0038
          613       18.0038
          614       18.0038
          615       18.0038
          616       18.0038
          617       18.0038
          618       18.0038
          619       18.0038
          620       18.0038
          621       18.0038
          622       18.0038
          623       18.0038
          624       18.0038
          625       18.0038
          626       18.0038
          627       18.0038
          628       18.0038
          629       18.0038
          630       18.0038
          631       18.0038
          632       18.0038
          633       18.0038
          634       18.0038
          635       18.0038
          636       18.0038
          637       18.0038
          638       18.0038
          639       18.0038
          640       18.0038
          641       18.0038
          642       18.0038
          643       18.0038
          644       18.0038
          645       18.0038
          646       18.0038
          647       18.0038
          648       18.0038
          649       18.0038
          650       18.0038
          651       18.0038
          652       18.0038
          653       18.0038
          654       18.0038
          655       18.0038
          656       18.0038
          657       18.0038
          658       18.0038
          659       18.0038
          660       18.0038
          661       18.0038
          662       18.0038
          663       18.0038
          664       18.0038
          665       18.0038
          666       18.0038
          667       18.0038
          668       18.0038
          669       18.0038
          670       18.0038
          671       18.0038
          672       18.0038
          673       18.0038
          674       18.0038
          675       18.0038
          676       18.0038
          677       18.0038
          678       18.0038
          679       18.0038
          680       18.0038
          681       18.0038
          682       18.0038
          683       18.0038
          684       18.0038
          685       18.0038
          686       18.0038
          687       18.0038
          688       18.0038
          689       18.0038
          690       18.0038
          691       18.0038
          692       18.0038
          693       18.0038
          694       18.0038
          695       18.0038
          696       18.0038
          697       18.0038
          698       18.0038
          699       18.0038
          700       18.0038
          701       18.0038
          702       18.0038
          703       18.0038
          704       18.0038
          705       18.0038
          706       18.0038
          707       18.0038
          708       18.0038
          709       18.0038
          710       18.0038
          711       18.0038
          712       18.0038
          713       18.0038
          714       18.0038
          715       18.0038
          716       18.0038
          717       18.0038
          718       18.0038
          719       18.0038
          720       18.0038
          721       18.0038
          722       18.0038
          723       18.0038
          724       18.0038
          725       18.0038
          726       18.0038
          727       18.0038
          728       18.0038
          729       18.0038
          730       18.0038
          731       18.0038
          732       18.0038
          733       18.0038
          734       18.0038
          735       18.0038
          736       18.0038
          737       18.0038
          738       18.0038
          739       18.0038
          740       18.0038
          741       18.0038
          742       18.0038
          743       18.0038
          744       18.0038
          745       18.0038
          746       18.0038
          747       18.0038
          748       18.0038
          749       18.0038
          750       18.0038
          751       18.0038
          752       18.0038
          753       18.0038
          754       18.0038
          755       18.0038
          756       18.0038
          757       18.0038
          758       18.0038
          759       18.0038
          760       18.0038
          761       18.0038
          762       18.0038
          763       18.0038
          764       18.0038
          765       18.0038
          766       18.0038
          767       18.0038
          768       18.0038
          769       18.0038
          770       18.0038
          771       18.0038
          772       18.0038
          773       18.0038
          774       18.0038
          775       18.0038
          776       18.0038
          777       18.0038
          778       18.0038
          779       18.0038
          780       18.0038
          781       18.0038
          782       18.0038
          783       18.0038
          784       18.0038
          785       18.0038
          786       18.0038
          787       18.0038
          788       18.0038
          789       18.0038
          790       18.0038
          791       18.0038
          792       18.0038
          793       18.0038
          794       18.0038
          795       18.0038
          796       18.0038
          797       18.0038
          798       18.0038
          799       18.0038
          800       18.0038
          801       18.0038
          802       18.0038
          803       18.0038
          804       18.0038
          805       18.0038
          806       18.0038
          807       18.0038
          808       18.0038
          809       18.0038
          810       18.0038
          811       18.0038
          812       18.0038
          813       18.0038
          814       18.0038
          815       18.0038
          816       18.0038
          817       18.0038
          818       18.0038
          819       18.0038
          820       18.0038
          821       18.0038
          822       18.0038
          823       18.0038
          824       18.0038
          825       18.0038
          826       18.0038
          827       18.0038
          828       18.0038
          829       18.0038
          830       18.0038
          831       18.0038
          832       18.0038
          833       18.0038
          834       18.0038
          835       18.0038
          836       18.0038
          837       18.0038
          838       18.0038
          839       18.0038
          840       18.0038
          841       18.0038
          842       18.0038
          843       18.0038
          844       18.0038
          845       18.0038
          846       18.0038
          847       18.0038
          848       18.0038
          849       18.0038
          850       18.0038
          851       18.0038
          852       18.0038
          853       18.0038
          854       18.0038
          855       18.0038
          856       18.0038
          857       18.0038
          858       18.0038
          859       18.0038
          860       18.0038
          861       18.0038
          862       18.0038
          863       18.0038
          864       18.0038
          865       18.0038
          866       18.0038
          867       18.0038
          868       18.0038
          869       18.0038
          870       18.0038
          871       18.0038
          872       18.0038
          873       18.0038
          874       18.0038
          875       18.0038
          876       18.0038
          877       18.0038
          878       18.0038
          879       18.0038
          880       18.0038
          881       18.0038
          882       18.0038
          883       18.0038
          884       18.0038
          885       18.0038
          886       18.0038
          887       18.0038
          888       18.0038
          889       18.0038
          890       18.0038
          891       18.0038
          892       18.0038
          893       18.0038
          894       18.0038
          895       18.0038
          896       18.0038
          897       18.0038
          898       18.0038
          899       18.0038
          900       18.0038
          901       18.0038
          902       18.0038
          903       18.0038
          904       18.0037
          905       18.0037
          906       18.0037
          907       18.0037
          908       18.0037
          909       18.0037
          910       18.0037
          911       18.0037
          912       18.0037
          913       18.0037
          914       18.0037
          915       18.0037
          916       18.0037
          917       18.0037
          918       18.0037
          919       18.0037
          920       18.0037
          921       18.0037
          922       18.0037
          923       18.0037
          924       18.0037
          925       18.0037
          926       18.0037
          927       18.0037
          928       18.0037
          929       18.0037
          930       18.0037
          931       18.0037
          932       18.0037
          933       18.0037
          934       18.0037
          935       18.0037
          936       18.0037
          937       18.0037
          938       18.0037
          939       18.0037
          940       18.0037
          941       18.0037
          942       18.0037
          943       18.0037
          944       18.0037
          945       18.0037
          946       18.0037
          947       18.0037
          948       18.0037
          949       18.0037
          950       18.0037
          951       18.0037
          952       18.0037
          953       18.0037
          954       18.0037
          955       18.0037
          956       18.0037
          957       18.0037
          958       18.0037
          959       18.0037
          960       18.0037
          961       18.0037
          962       18.0037
          963       18.0037
          964       18.0037
          965       18.0037
          966       18.0037
          967       18.0037
          968       18.0037
          969       18.0037
          970       18.0037
          971       18.0037
          972       18.0037
          973       18.0037
          974       18.0037
          975       18.0037
          976       18.0037
          977       18.0037
          978       18.0037
          979       18.0037
          980       18.0037
          981       18.0037
          982       18.0037
          983       18.0037
          984       18.0037
          985       18.0037
          986       18.0037
          987       18.0037
          988       18.0037
          989       18.0037
          990       18.0037
          991       18.0037
          992       18.0037
          993       18.0037
          994       18.0037
          995       18.0037
          996       18.0037
          997       18.0037
          998       18.0037
          999       18.0037
         1000       18.0037
         1001       18.0037
         1002       18.0037
         1003       18.0037
         1004       18.0037
         1005       18.0037
         1006       18.0037
         1007       18.0037
         1008       18.0037
         1009       18.0037
         1010       18.0037
         1011       18.0037
         1012       18.0037
         1013       18.0037
         1014       18.0037
         1015       18.0037
         1016       18.0037
         1017       18.0037
         1018       18.0037
         1019       18.0037
         1020       18.0037
         1021       18.0037
         1022       18.0037
         1023       18.0037
         1024       18.0037
         1025       18.0037
         1026       18.0037
         1027       18.0037
         1028       18.0037
         1029       18.0037
         1030       18.0037
         1031       18.0037
         1032       18.0037
         1033       18.0037
         1034       18.0037
         1035       18.0037
         1036       18.0037
         1037       18.0037
         1038       18.0037
         1039       18.0037
         1040       18.0037
         1041       18.0037
         1042       18.0037
         1043       18.0037
         1044       18.0037
         1045       18.0037
         1046       18.0037
         1047       18.0037
         1048       18.0037
         1049       18.0037
         1050       18.0037
         1051       18.0037
         1052       18.0037
         1053       18.0037
         1054       18.0037
         1055       18.0037
         1056       18.0037
         1057       18.0037
         1058       18.0037
         1059       18.0037
         1060       18.0037
         1061       18.0037
         1062       18.0037
         1063       18.0037
         1064       18.0037
         1065       18.0037
         1066       18.0037
         1067       18.0037
         1068       18.0037