0.000000e+00 	0.040000 
2.500000e+01 	0.040000 
5.000000e+01 	0.039988 
7.500000e+01 	0.039940 
1.000000e+02 	0.039811 
1.250000e+02 	0.039543 
1.500000e+02 	0.039065 
1.750000e+02 	0.038306 
2.000000e+02 	0.037200 
2.250000e+02 	0.035719 
2.500000e+02 	0.033844 
2.750000e+02 	0.031593 
3.000000e+02 	0.029072 
3.218202e+02 	0.026747 
3.436405e+02 	0.024369 
3.654607e+02 	0.022020 
3.872810e+02 	0.019762 
4.076963e+02 	0.017769 
4.281117e+02 	0.015926 
4.485271e+02 	0.014251 
4.689424e+02 	0.012737 
4.904368e+02 	0.011309 
5.119312e+02 	0.010047 
5.334255e+02 	0.008933 
5.549199e+02 	0.007956 
5.757062e+02 	0.007132 
5.964926e+02 	0.006408 
6.172790e+02 	0.005769 
6.380653e+02 	0.005207 
6.630653e+02 	0.004620 
6.880653e+02 	0.004113 
7.130653e+02 	0.003674 
7.380653e+02 	0.003294 
7.630653e+02 	0.002963 
7.880653e+02 	0.002674 
8.130653e+02 	0.002421 
8.380653e+02 	0.002198 
8.630653e+02 	0.002002 
8.880653e+02 	0.001828 
9.130653e+02 	0.001674 
9.380653e+02 	0.001537 
9.535490e+02 	0.001460 
9.690327e+02 	0.001387 
9.845163e+02 	0.001320 
1.000000e+03 	0.001257 
