# Probe 0 (0.05 0.05 0.005)
#       Probe             0
#        Time
            1       3.80413
            2       3.80413
            3       3.80413
            4       3.80413
            5       3.80413
            6       3.80413
            7       3.80413
            8       3.80413
            9       3.80413
           10       3.80413
           11       3.80413
           12       3.80413
           13       3.80413
           14       3.80413
           15       3.80413
           16       3.80413
           17       3.80413
           18       3.80413
           19       3.80413
           20       3.80413
           21       3.80413
           22       3.80413
           23       3.80413
           24       3.80413
           25       3.80413
           26       3.80413
           27       3.80413
           28       3.80413
           29       3.80413
           30       3.80413
           31       3.80413
           32       3.80413
           33       3.80413
           34       3.80413
           35       3.80413
           36       3.80413
           37       3.80413
           38       3.80413
           39       3.80413
           40       3.80413
           41       3.80413
           42       3.80413
           43       3.80413
           44       3.80413
           45       3.80413
           46       3.80413
           47       3.80413
           48       3.80413
           49       3.80413
           50       3.80413
           51       3.80413
           52       3.80413
           53       3.80413
           54       3.80413
           55       3.80413
           56       3.80413
           57       3.80413
           58       3.80413
           59       3.80413
           60       3.80413
           61       3.80413
           62       3.80413
           63       3.80413
           64       3.80413
           65       3.80413
           66       3.80413
           67       3.80413
           68       3.80413
           69       3.80413
           70       3.80413
           71       3.80413
           72       3.80413
           73       3.80413
           74       3.80413
           75       3.80413
           76       3.80413
           77       3.80413
           78       3.80413
           79       3.80413
           80       3.80413
           81       3.80413
           82       3.80413
           83       3.80413
           84       3.80413
           85       3.80413
           86       3.80413
           87       3.80413
           88       3.80413
           89       3.80413
           90       3.80413
           91       3.80413
           92       3.80413
           93       3.80413
           94       3.80413
           95       3.80413
           96       3.80413
           97       3.80413
           98       3.80413
           99       3.80413
          100       3.80413
          101       3.80413
          102       3.80413
          103       3.80413
          104       3.80413
          105       3.80413
          106       3.80413
          107       3.80413
          108       3.80413
          109       3.80413
          110       3.80413
          111       3.80413
          112       3.80413
          113       3.80413
          114       3.80413
          115       3.80413
          116       3.80413
          117       3.80413
          118       3.80413
          119       3.80413
          120       3.80413
          121       3.80413
          122       3.80413
          123       3.80413
          124       3.80413
          125       3.80413
          126       3.80413
          127       3.80413
          128       3.80413
          129       3.80413
          130       3.80413
          131       3.80413
          132       3.80413
          133       3.80413
          134       3.80413
          135       3.80413
          136       3.80413
          137       3.80413
          138       3.80413
          139       3.80413
          140       3.80413
          141       3.80413
          142       3.80413
          143       3.80413
          144       3.80413
          145       3.80413
          146       3.80413
          147       3.80413
          148       3.80413
          149       3.80413
          150       3.80413
          151       3.80413
          152       3.80413
          153       3.80413
          154       3.80413
          155       3.80413
          156       3.80413
          157       3.80413
          158       3.80413
          159       3.80413
          160       3.80413
          161       3.80413
          162       3.80413
          163       3.80413
          164       3.80413
          165       3.80413
          166       3.80413
          167       3.80413
          168       3.80413
          169       3.80413
          170       3.80413
          171       3.80413
          172       3.80413
          173       3.80413
          174       3.80413
          175       3.80413
          176       3.80413
          177       3.80413
          178       3.80413
          179       3.80413
          180       3.80413
          181       3.80413
          182       3.80413
          183       3.80413
          184       3.80413
          185       3.80413
          186       3.80413
          187       3.80413
          188       3.80413
          189       3.80413
          190       3.80413
          191       3.80413
          192       3.80413
          193       3.80413
          194       3.80413
          195       3.80413
          196       3.80413
          197       3.80413
          198       3.80413
          199       3.80413
          200       3.80413
          201       3.80413
          202       3.80413
          203       3.80413
          204       3.80413
          205       3.80413
          206       3.80413
          207       3.80413
          208       3.80413
          209       3.80413
          210       3.80413
          211       3.80413
          212       3.80413
          213       3.80413
          214       3.80413
          215       3.80413
          216       3.80413
          217       3.80413
          218       3.80413
          219       3.80413
          220       3.80413
          221       3.80413
          222       3.80413
          223       3.80413
          224       3.80413
          225       3.80413
          226       3.80413
          227       3.80413
          228       3.80413
          229       3.80413
          230       3.80413
          231       3.80413
          232       3.80413
          233       3.80413
          234       3.80413
          235       3.80413
          236       3.80413
          237       3.80413
          238       3.80413
          239       3.80413
          240       3.80413
          241       3.80413
          242       3.80413
          243       3.80413
          244       3.80413
          245       3.80413
          246       3.80413
          247       3.80413
          248       3.80413
          249       3.80413
          250       3.80413
          251       3.80413
          252       3.80413
          253       3.80413
          254       3.80413
          255       3.80413
          256       3.80413
          257       3.80413
          258       3.80413
          259       3.80413
          260       3.80413
          261       3.80413
          262       3.80413
          263       3.80413
          264       3.80413
          265       3.80413
          266       3.80413
          267       3.80413
          268       3.80413
          269       3.80413
          270       3.80413
          271       3.80413
          272       3.80413
          273       3.80413
          274       3.80413
          275       3.80413
          276       3.80413
          277       3.80413
          278       3.80413
          279       3.80413
          280       3.80413
          281       3.80413
          282       3.80413
          283       3.80413
          284       3.80413
          285       3.80413
          286       3.80413
          287       3.80413
          288       3.80413
          289       3.80413
          290       3.80413
          291       3.80413
          292       3.80413
          293       3.80413
          294       3.80413
          295       3.80413
          296       3.80413
          297       3.80413
          298       3.80413
          299       3.80413
          300       3.80413
          301       3.80413
          302       3.80413
          303       3.80413
          304       3.80413
          305       3.80413
          306       3.80413
          307       3.80413
          308       3.80413
          309       3.80413
          310       3.80413
          311       3.80413
          312       3.80413
          313       3.80413
          314       3.80413
          315       3.80413
          316       3.80413
          317       3.80413
          318       3.80413
          319       3.80413
          320       3.80413
          321       3.80413
          322       3.80413
          323       3.80413
          324       3.80413
          325       3.80413
          326       3.80413
          327       3.80413
          328       3.80413
          329       3.80413
          330       3.80413
          331       3.80413
          332       3.80413
          333       3.80413
          334       3.80413
          335       3.80413
          336       3.80413
          337       3.80413
          338       3.80413
          339       3.80413
          340       3.80413
          341       3.80413
          342       3.80413
          343       3.80413
          344       3.80413
          345       3.80413
          346       3.80413
          347       3.80413
          348       3.80413
          349       3.80413
          350       3.80413
          351       3.80413
          352       3.80413
          353       3.80413
          354       3.80413
          355       3.80413
          356       3.80413
          357       3.80413
          358       3.80413
          359       3.80413
          360       3.80413
          361       3.80413
          362       3.80413
          363       3.80413
          364       3.80413
          365       3.80413
          366       3.80413
          367       3.80413
          368       3.80413
          369       3.80413
          370       3.80413
          371       3.80413
          372       3.80413
          373       3.80413
          374       3.80413
          375       3.80413
          376       3.80413
          377       3.80413
          378       3.80413
          379       3.80413
          380       3.80413
          381       3.80413
          382       3.80413
          383       3.80413
          384       3.80413
          385       3.80413
          386       3.80413
          387       3.80413
          388       3.80413
          389       3.80413
          390       3.80413
          391       3.80413
          392       3.80413
          393       3.80413
          394       3.80413
          395       3.80413
          396       3.80413
          397       3.80413
          398       3.80413
          399       3.80413
          400       3.80413
          401       3.80413
          402       3.80413
          403       3.80413
          404       3.80413
          405       3.80413
          406       3.80413
          407       3.80413
          408       3.80413
          409       3.80413
          410       3.80413
          411       3.80413
          412       3.80413
          413       3.80413
          414       3.80413
          415       3.80413
          416       3.80413
          417       3.80413
          418       3.80413
          419       3.80413
          420       3.80413
          421       3.80413
          422       3.80413
          423       3.80413
          424       3.80413
          425       3.80413
          426       3.80413
          427       3.80413
          428       3.80413
          429       3.80413
          430       3.80413
          431       3.80413
          432       3.80413
          433       3.80413
          434       3.80413
          435       3.80413
          436       3.80413
          437       3.80413
          438       3.80413
          439       3.80413
          440       3.80413
          441       3.80413
          442       3.80413
          443       3.80413
          444       3.80413
          445       3.80413
          446       3.80413
          447       3.80413
          448       3.80413
          449       3.80413
          450       3.80413
          451       3.80413
          452       3.80413
          453       3.80413
          454       3.80413
          455       3.80413
          456       3.80413
          457       3.80413
          458       3.80413
          459       3.80413
          460       3.80413
          461       3.80413
          462       3.80413
          463       3.80413
          464       3.80413
          465       3.80413
          466       3.80413
          467       3.80413
          468       3.80413
          469       3.80413
          470       3.80413
          471       3.80413
          472       3.80413
          473       3.80413
          474       3.80413
          475       3.80413
          476       3.80413
          477       3.80413
          478       3.80413
          479       3.80413
          480       3.80413
          481       3.80413
          482       3.80413
          483       3.80413
          484       3.80413
          485       3.80413
          486       3.80413
          487       3.80413
          488       3.80413
          489       3.80413
          490       3.80413
          491       3.80413
          492       3.80413
          493       3.80413
          494       3.80413
          495       3.80413
          496       3.80413
          497       3.80413
          498       3.80413
          499       3.80413
          500       3.80413
          501       3.80413
          502       3.80413
          503       3.80413
          504       3.80413
          505       3.80413
          506       3.80413
          507       3.80413
          508       3.80413
          509       3.80413
          510       3.80413
          511       3.80413
          512       3.80413
          513       3.80413
          514       3.80413
          515       3.80413
          516       3.80413
          517       3.80413
          518       3.80413
          519       3.80413
          520       3.80413
          521       3.80413
          522       3.80413
          523       3.80413
          524       3.80413
          525       3.80413
          526       3.80413
          527       3.80413
          528       3.80413
          529       3.80413
          530       3.80413
          531       3.80413
          532       3.80413
          533       3.80413
          534       3.80413
          535       3.80413
          536       3.80413
          537       3.80413
          538       3.80413
          539       3.80413
          540       3.80413
          541       3.80413
          542       3.80413
          543       3.80413
          544       3.80413
          545       3.80413
          546       3.80413
          547       3.80413
          548       3.80413
          549       3.80413
          550       3.80413
          551       3.80413
          552       3.80413
          553       3.80413
          554       3.80413
          555       3.80413
          556       3.80413
          557       3.80413
          558       3.80413
          559       3.80413
          560       3.80413
          561       3.80413
          562       3.80413
          563       3.80413
          564       3.80413
          565       3.80413
          566       3.80413
          567       3.80413
          568       3.80413
          569       3.80413
          570       3.80413
          571       3.80413
          572       3.80413
          573       3.80413
          574       3.80413
          575       3.80413
          576       3.80413
          577       3.80413
          578       3.80413
          579       3.80413
          580       3.80413
          581       3.80413
          582       3.80413
          583       3.80413
          584       3.80413
          585       3.80413
          586       3.80413
          587       3.80413
          588       3.80413
          589       3.80413
          590       3.80413
          591       3.80413
          592       3.80413
          593       3.80413
          594       3.80413
          595       3.80413
          596       3.80413
          597       3.80413
          598       3.80413
          599       3.80413
          600       3.80413
          601       3.80413
          602       3.80413
          603       3.80413
          604       3.80413
          605       3.80413
          606       3.80413
          607       3.80413
          608       3.80413
          609       3.80413
          610       3.80413
          611       3.80413
          612       3.80413
          613       3.80413
          614       3.80413
          615       3.80413
          616       3.80413
          617       3.80413
          618       3.80413
          619       3.80413
          620       3.80413
          621       3.80413
          622       3.80413
          623       3.80413
          624       3.80413
          625       3.80413
          626       3.80413
          627       3.80413
          628       3.80413
          629       3.80413
          630       3.80413
          631       3.80413
          632       3.80413
          633       3.80413
          634       3.80413
          635       3.80413
          636       3.80413
          637       3.80413
          638       3.80413
          639       3.80413
          640       3.80413
          641       3.80413
          642       3.80413
          643       3.80413
          644       3.80413
          645       3.80413
          646       3.80413
          647       3.80413
          648       3.80413
          649       3.80413
          650       3.80413
          651       3.80413
          652       3.80413
          653       3.80413
          654       3.80413
          655       3.80413
          656       3.80413
          657       3.80413
          658       3.80413
          659       3.80413
          660       3.80413
          661       3.80413
          662       3.80413
          663       3.80413
          664       3.80413
          665       3.80413
          666       3.80413
          667       3.80413
          668       3.80413
          669       3.80413
          670       3.80413
          671       3.80413
          672       3.80413
          673       3.80413
          674       3.80413
          675       3.80413
          676       3.80413
          677       3.80413
          678       3.80413
          679       3.80413
          680       3.80413
          681       3.80413
          682       3.80413
          683       3.80413
          684       3.80413
          685       3.80413
          686       3.80413
          687       3.80413
          688       3.80413
          689       3.80413
          690       3.80413
          691       3.80413
          692       3.80413
          693       3.80413
          694       3.80413
          695       3.80413
          696       3.80413
          697       3.80413
          698       3.80413
          699       3.80413
          700       3.80413
          701       3.80413
          702       3.80413
          703       3.80413
          704       3.80413
          705       3.80413
          706       3.80413
          707       3.80413
          708       3.80413
          709       3.80413
          710       3.80413
          711       3.80413
          712       3.80413
          713       3.80413
          714       3.80413
          715       3.80413
          716       3.80413
          717       3.80413
          718       3.80413
          719       3.80413
          720       3.80413
          721       3.80413
          722       3.80413
          723       3.80413
          724       3.80413
          725       3.80413
          726       3.80413
          727       3.80413
          728       3.80413
          729       3.80413
          730       3.80413
          731       3.80413
          732       3.80413
          733       3.80413
          734       3.80413
          735       3.80413
          736       3.80413
          737       3.80413
          738       3.80413
          739       3.80413
          740       3.80413
          741       3.80413
          742       3.80413
          743       3.80413
          744       3.80413
          745       3.80413
          746       3.80413
          747       3.80413
          748       3.80413
          749       3.80413
          750       3.80413
          751       3.80413
          752       3.80413
          753       3.80413
          754       3.80413
          755       3.80413
          756       3.80413
          757       3.80413
          758       3.80413
          759       3.80413
          760       3.80413
          761       3.80413
          762       3.80413
          763       3.80413
          764       3.80413
          765       3.80413
          766       3.80413
          767       3.80413
          768       3.80413
          769       3.80413
          770       3.80413
          771       3.80413
          772       3.80413
          773       3.80413
          774       3.80413
          775       3.80413
          776       3.80413
          777       3.80413
          778       3.80413
          779       3.80413
          780       3.80413
          781       3.80413
          782       3.80413
          783       3.80413
          784       3.80413
          785       3.80413
          786       3.80413
          787       3.80413
          788       3.80413
          789       3.80413
          790       3.80413
          791       3.80413
          792       3.80413
          793       3.80413
          794       3.80413
          795       3.80413
          796       3.80413
          797       3.80413
          798       3.80413
          799       3.80413
          800       3.80413
          801       3.80413
          802       3.80413
          803       3.80413
          804       3.80413
          805       3.80413
          806       3.80413
          807       3.80413
          808       3.80413
          809       3.80413
          810       3.80413
          811       3.80413
          812       3.80413
          813       3.80413
          814       3.80413
          815       3.80413
          816       3.80413
          817       3.80413
          818       3.80413
          819       3.80413
          820       3.80413
          821       3.80413
          822       3.80413
          823       3.80413
          824       3.80413
          825       3.80413
          826       3.80413
          827       3.80413
          828       3.80413
          829       3.80413
          830       3.80413
          831       3.80413
          832       3.80413
          833       3.80413
          834       3.80413
          835       3.80413
          836       3.80413
          837       3.80413
          838       3.80413
          839       3.80413
          840       3.80413
          841       3.80413
          842       3.80413
          843       3.80413
          844       3.80413
          845       3.80413
          846       3.80413
          847       3.80413
          848       3.80413
          849       3.80413
          850       3.80413
          851       3.80413
          852       3.80413
          853       3.80413
          854       3.80413
          855       3.80413
          856       3.80413
          857       3.80413
          858       3.80413
          859       3.80413
          860       3.80413
          861       3.80413
          862       3.80413
          863       3.80413
          864       3.80413
          865       3.80413
          866       3.80413
          867       3.80413
          868       3.80413
          869       3.80413
          870       3.80413
          871       3.80413
          872       3.80413
          873       3.80413
          874       3.80413
          875       3.80413
          876       3.80413
          877       3.80413
          878       3.80413
          879       3.80413
          880       3.80413
          881       3.80413
          882       3.80413
          883       3.80413
          884       3.80413
          885       3.80413
          886       3.80413
          887       3.80413
          888       3.80413
          889       3.80413
          890       3.80413
          891       3.80413
          892       3.80413
          893       3.80413
          894       3.80413
          895       3.80413
          896       3.80413
          897       3.80413
          898       3.80413
          899       3.80413
          900       3.80413
          901       3.80413
          902       3.80413
          903       3.80413
          904       3.80413
          905       3.80413
          906       3.80413
          907       3.80413
          908       3.80413
          909       3.80413
          910       3.80413
          911       3.80413
          912       3.80413
          913       3.80413
          914       3.80413
          915       3.80413
          916       3.80413
          917       3.80413
          918       3.80413
          919       3.80413
          920       3.80413
          921       3.80413
          922       3.80413
          923       3.80413
          924       3.80413
          925       3.80413
          926       3.80413
          927       3.80413
          928       3.80413
          929       3.80413
          930       3.80413
          931       3.80413
          932       3.80413
          933       3.80413
          934       3.80413
          935       3.80413
          936       3.80413
          937       3.80413
          938       3.80413
          939       3.80413
          940       3.80413
          941       3.80413
          942       3.80413
          943       3.80413
          944       3.80413
          945       3.80413
          946       3.80413
          947       3.80413
          948       3.80413
          949       3.80413
          950       3.80413
          951       3.80413
          952       3.80413
          953       3.80413
          954       3.80413
          955       3.80413
          956       3.80413
          957       3.80413
          958       3.80413
          959       3.80413
          960       3.80413
          961       3.80413
          962       3.80413
          963       3.80413
          964       3.80413
          965       3.80413
          966       3.80413
          967       3.80413
          968       3.80413
          969       3.80413
          970       3.80413
          971       3.80413
          972       3.80413
          973       3.80413
          974       3.80413
          975       3.80413
          976       3.80413
          977       3.80413
          978       3.80413
          979       3.80413
          980       3.80413
          981       3.80413
          982       3.80413
          983       3.80413
          984       3.80413
          985       3.80413
          986       3.80413
          987       3.80413
          988       3.80413
          989       3.80413
          990       3.80413
          991       3.80413
          992       3.80413
          993       3.80413
          994       3.80413
          995       3.80413
          996       3.80413
          997       3.80413
          998       3.80413
          999       3.80413
         1000       3.80413
         1001       3.80413
         1002       3.80413
         1003       3.80413
         1004       3.80413
         1005       3.80413
         1006       3.80413
         1007       3.80413
         1008       3.80413
         1009       3.80413
         1010       3.80413
         1011       3.80413
         1012       3.80413
         1013       3.80413
         1014       3.80413
         1015       3.80413
         1016       3.80413
         1017       3.80413
         1018       3.80413
         1019       3.80413
         1020       3.80413
         1021       3.80413
         1022       3.80413
         1023       3.80413
         1024       3.80413
         1025       3.80413
         1026       3.80413
         1027       3.80413
         1028       3.80413
         1029       3.80413
         1030       3.80413
         1031       3.80413
         1032       3.80413
         1033       3.80413
         1034       3.80413
         1035       3.80413
         1036       3.80413
         1037       3.80413
         1038       3.80413
         1039       3.80413
         1040       3.80413
         1041       3.80413
         1042       3.80413
         1043       3.80413
         1044       3.80413
         1045       3.80413
         1046       3.80413
         1047       3.80413
         1048       3.80413
         1049       3.80413
         1050       3.80413
         1051       3.80413
         1052       3.80413
         1053       3.80413
         1054       3.80413
         1055       3.80413
         1056       3.80413
         1057       3.80413
         1058       3.80413
         1059       3.80413
         1060       3.80413
         1061       3.80413
         1062       3.80413
         1063       3.80413
         1064       3.80413
         1065       3.80413
         1066       3.80413
         1067       3.80413
         1068       3.80413