# Probe 0 (0.05 0.05 0.005)
#       Probe             0
#        Time
            1       6369.87
            2       6369.87
            3       6369.87
            4       6369.87
            5       6369.87
            6       6369.87
            7       6369.87
            8       6369.87
            9       6369.87
           10       6369.87
           11       6369.87
           12       6369.87
           13       6369.87
           14       6369.87
           15       6369.87
           16       6369.87
           17       6369.87
           18       6369.87
           19       6369.87
           20       6369.87
           21       6369.87
           22       6369.87
           23       6369.87
           24       6369.87
           25       6369.87
           26       6369.87
           27       6369.87
           28       6369.87
           29       6369.87
           30       6369.87
           31       6369.87
           32       6369.87
           33       6369.87
           34       6369.87
           35       6369.87
           36       6369.87
           37       6369.87
           38       6369.87
           39       6369.87
           40       6369.87
           41       6369.87
           42       6369.87
           43       6369.87
           44       6369.87
           45       6369.87
           46       6369.87
           47       6369.87
           48       6369.87
           49       6369.87
           50       6369.87
           51       6369.87
           52       6369.87
           53       6369.87
           54       6369.87
           55       6369.87
           56       6369.87
           57       6369.87
           58       6369.87
           59       6369.87
           60       6369.87
           61       6369.87
           62       6369.87
           63       6369.87
           64       6369.87
           65       6369.87
           66       6369.87
           67       6369.87
           68       6369.87
           69       6369.87
           70       6369.87
           71       6369.87
           72       6369.87
           73       6369.87
           74       6369.87
           75       6369.87
           76       6369.87
           77       6369.87
           78       6369.87
           79       6369.87
           80       6369.87
           81       6369.87
           82       6369.87
           83       6369.87
           84       6369.87
           85       6369.87
           86       6369.87
           87       6369.87
           88       6369.87
           89       6369.87
           90       6369.87
           91       6369.87
           92       6369.87
           93       6369.87
           94       6369.87
           95       6369.87
           96       6369.87
           97       6369.87
           98       6369.87
           99       6369.87
          100       6369.87
          101       6369.87
          102       6369.87
          103       6369.87
          104       6369.87
          105       6369.87
          106       6369.87
          107       6369.87
          108       6369.87
          109       6369.87
          110       6369.87
          111       6369.87
          112       6369.87
          113       6369.87
          114       6369.87
          115       6369.87
          116       6369.87
          117       6369.87
          118       6369.87
          119       6369.87
          120       6369.87
          121       6369.87
          122       6369.87
          123       6369.87
          124       6369.87
          125       6369.87
          126       6369.87
          127       6369.87
          128       6369.87
          129       6369.87
          130       6369.87
          131       6369.87
          132       6369.87
          133       6369.87
          134       6369.87
          135       6369.87
          136       6369.87
          137       6369.87
          138       6369.87
          139       6369.87
          140       6369.87
          141       6369.87
          142       6369.87
          143       6369.87
          144       6369.87
          145       6369.87
          146       6369.87
          147       6369.87
          148       6369.87
          149       6369.87
          150       6369.87
          151       6369.87
          152       6369.87
          153       6369.87
          154       6369.87
          155       6369.87
          156       6369.87
          157       6369.87
          158       6369.87
          159       6369.87
          160       6369.87
          161       6369.87
          162       6369.87
          163       6369.87
          164       6369.87
          165       6369.87
          166       6369.87
          167       6369.87
          168       6369.87
          169       6369.87
          170       6369.87
          171       6369.87
          172       6369.87
          173       6369.87
          174       6369.87
          175       6369.87
          176       6369.87
          177       6369.87
          178       6369.87
          179       6369.87
          180       6369.87
          181       6369.87
          182       6369.87
          183       6369.87
          184       6369.87
          185       6369.87
          186       6369.87
          187       6369.87
          188       6369.87
          189       6369.87
          190       6369.87
          191       6369.87
          192       6369.87
          193       6369.87
          194       6369.87
          195       6369.87
          196       6369.87
          197       6369.87
          198       6369.87
          199       6369.87
          200       6369.87
          201       6369.87
          202       6369.87
          203       6369.87
          204       6369.87
          205       6369.87
          206       6369.87
          207       6369.87
          208       6369.87
          209       6369.87
          210       6369.87
          211       6369.87
          212       6369.87
          213       6369.87
          214       6369.87
          215       6369.87
          216       6369.87
          217       6369.87
          218       6369.87
          219       6369.87
          220       6369.87
          221       6369.87
          222       6369.87
          223       6369.87
          224       6369.87
          225       6369.87
          226       6369.87
          227       6369.87
          228       6369.87
          229       6369.87
          230       6369.87
          231       6369.87
          232       6369.87
          233       6369.87
          234       6369.87
          235       6369.87
          236       6369.87
          237       6369.87
          238       6369.87
          239       6369.87
          240       6369.87
          241       6369.87
          242       6369.87
          243       6369.87
          244       6369.87
          245       6369.87
          246       6369.87
          247       6369.87
          248       6369.87
          249       6369.87
          250       6369.87
          251       6369.87
          252       6369.87
          253       6369.87
          254       6369.87
          255       6369.87
          256       6369.87
          257       6369.87
          258       6369.87
          259       6369.87
          260       6369.87
          261       6369.87
          262       6369.87
          263       6369.87
          264       6369.87
          265       6369.87
          266       6369.87
          267       6369.87
          268       6369.87
          269       6369.87
          270       6369.87
          271       6369.87
          272       6369.87
          273       6369.87
          274       6369.87
          275       6369.87
          276       6369.87
          277       6369.87
          278       6369.87
          279       6369.87
          280       6369.87
          281       6369.87
          282       6369.87
          283       6369.87
          284       6369.87
          285       6369.87
          286       6369.87
          287       6369.87
          288       6369.87
          289       6369.87
          290       6369.87
          291       6369.87
          292       6369.87
          293       6369.87
          294       6369.87
          295       6369.87
          296       6369.87
          297       6369.87
          298       6369.87
          299       6369.87
          300       6369.87
          301       6369.87
          302       6369.87
          303       6369.87
          304       6369.87
          305       6369.87
          306       6369.87
          307       6369.87
          308       6369.87
          309       6369.87
          310       6369.87
          311       6369.87
          312       6369.87
          313       6369.87
          314       6369.87
          315       6369.87
          316       6369.87
          317       6369.87
          318       6369.87
          319       6369.87
          320       6369.87
          321       6369.87
          322       6369.87
          323       6369.87
          324       6369.87
          325       6369.87
          326       6369.87
          327       6369.87
          328       6369.87
          329       6369.87
          330       6369.87
          331       6369.87
          332       6369.87
          333       6369.87
          334       6369.87
          335       6369.87
          336       6369.87
          337       6369.87
          338       6369.87
          339       6369.87
          340       6369.87
          341       6369.87
          342       6369.87
          343       6369.87
          344       6369.87
          345       6369.87
          346       6369.87
          347       6369.87
          348       6369.87
          349       6369.87
          350       6369.87
          351       6369.87
          352       6369.87
          353       6369.87
          354       6369.87
          355       6369.87
          356       6369.87
          357       6369.87
          358       6369.87
          359       6369.87
          360       6369.87
          361       6369.87
          362       6369.87
          363       6369.87
          364       6369.87
          365       6369.87
          366       6369.87
          367       6369.87
          368       6369.87
          369       6369.87
          370       6369.87
          371       6369.87
          372       6369.87
          373       6369.87
          374       6369.87
          375       6369.87
          376       6369.87
          377       6369.87
          378       6369.87
          379       6369.87
          380       6369.87
          381       6369.87
          382       6369.87
          383       6369.87
          384       6369.87
          385       6369.87
          386       6369.87
          387       6369.87
          388       6369.87
          389       6369.87
          390       6369.87
          391       6369.87
          392       6369.87
          393       6369.87
          394       6369.87
          395       6369.87
          396       6369.87
          397       6369.87
          398       6369.87
          399       6369.87
          400       6369.87
          401       6369.87
          402       6369.87
          403       6369.87
          404       6369.87
          405       6369.87
          406       6369.87
          407       6369.87
          408       6369.87
          409       6369.87
          410       6369.87
          411       6369.87
          412       6369.87
          413       6369.87
          414       6369.87
          415       6369.87
          416       6369.87
          417       6369.87
          418       6369.87
          419       6369.87
          420       6369.87
          421       6369.87
          422       6369.87
          423       6369.87
          424       6369.87
          425       6369.87
          426       6369.87
          427       6369.87
          428       6369.87
          429       6369.87
          430       6369.87
          431       6369.87
          432       6369.87
          433       6369.87
          434       6369.87
          435       6369.87
          436       6369.87
          437       6369.87
          438       6369.87
          439       6369.87
          440       6369.87
          441       6369.87
          442       6369.87
          443       6369.87
          444       6369.87
          445       6369.87
          446       6369.87
          447       6369.87
          448       6369.87
          449       6369.87
          450       6369.87
          451       6369.87
          452       6369.87
          453       6369.87
          454       6369.87
          455       6369.87
          456       6369.87
          457       6369.87
          458       6369.87
          459       6369.87
          460       6369.87
          461       6369.87
          462       6369.87
          463       6369.87
          464       6369.87
          465       6369.87
          466       6369.87
          467       6369.87
          468       6369.87
          469       6369.87
          470       6369.87
          471       6369.87
          472       6369.87
          473       6369.87
          474       6369.87
          475       6369.87
          476       6369.87
          477       6369.87
          478       6369.87
          479       6369.87
          480       6369.87
          481       6369.87
          482       6369.87
          483       6369.87
          484       6369.87
          485       6369.87
          486       6369.87
          487       6369.87
          488       6369.87
          489       6369.87
          490       6369.87
          491       6369.87
          492       6369.87
          493       6369.87
          494       6369.87
          495       6369.87
          496       6369.87
          497       6369.87
          498       6369.87
          499       6369.87
          500       6369.87
          501       6369.87
          502       6369.87
          503       6369.87
          504       6369.87
          505       6369.87
          506       6369.87
          507       6369.87
          508       6369.87
          509       6369.87
          510       6369.87
          511       6369.87
          512       6369.87
          513       6369.87
          514       6369.87
          515       6369.87
          516       6369.87
          517       6369.87
          518       6369.87
          519       6369.87
          520       6369.87
          521       6369.87
          522       6369.87
          523       6369.87
          524       6369.87
          525       6369.87
          526       6369.87
          527       6369.87
          528       6369.87
          529       6369.87
          530       6369.87
          531       6369.87
          532       6369.87
          533       6369.87
          534       6369.87
          535       6369.87
          536       6369.87
          537       6369.87
          538       6369.87
          539       6369.87
          540       6369.87
          541       6369.87
          542       6369.87
          543       6369.87
          544       6369.87
          545       6369.87
          546       6369.87
          547       6369.87
          548       6369.87
          549       6369.87
          550       6369.87
          551       6369.87
          552       6369.87
          553       6369.87
          554       6369.87
          555       6369.87
          556       6369.87
          557       6369.87
          558       6369.87
          559       6369.87
          560       6369.87
          561       6369.87
          562       6369.87
          563       6369.87
          564       6369.87
          565       6369.87
          566       6369.87
          567       6369.87
          568       6369.87
          569       6369.87
          570       6369.87
          571       6369.87
          572       6369.87
          573       6369.87
          574       6369.87
          575       6369.87
          576       6369.87
          577       6369.87
          578       6369.87
          579       6369.87
          580       6369.87
          581       6369.87
          582       6369.87
          583       6369.87
          584       6369.87
          585       6369.87
          586       6369.87
          587       6369.87
          588       6369.87
          589       6369.87
          590       6369.87
          591       6369.87
          592       6369.87
          593       6369.87
          594       6369.87
          595       6369.87
          596       6369.87
          597       6369.87
          598       6369.87
          599       6369.87
          600       6369.87
          601       6369.87
          602       6369.87
          603       6369.87
          604       6369.87
          605       6369.87
          606       6369.87
          607       6369.87
          608       6369.87
          609       6369.87
          610       6369.87
          611       6369.87
          612       6369.87
          613       6369.87
          614       6369.87
          615       6369.87
          616       6369.87
          617       6369.87
          618       6369.87
          619       6369.87
          620       6369.87
          621       6369.87
          622       6369.87
          623       6369.87
          624       6369.87
          625       6369.87
          626       6369.87
          627       6369.87
          628       6369.87
          629       6369.87
          630       6369.87
          631       6369.87
          632       6369.87
          633       6369.87
          634       6369.87
          635       6369.87
          636       6369.87
          637       6369.87
          638       6369.87
          639       6369.87
          640       6369.87
          641       6369.87
          642       6369.87
          643       6369.87
          644       6369.87
          645       6369.87
          646       6369.87
          647       6369.87
          648       6369.87
          649       6369.87
          650       6369.87
          651       6369.87
          652       6369.87
          653       6369.87
          654       6369.87
          655       6369.87
          656       6369.87
          657       6369.87
          658       6369.87
          659       6369.87
          660       6369.87
          661       6369.87
          662       6369.87
          663       6369.87
          664       6369.87
          665       6369.87
          666       6369.87
          667       6369.87
          668       6369.87
          669       6369.87
          670       6369.87
          671       6369.87
          672       6369.87
          673       6369.87
          674       6369.87
          675       6369.87
          676       6369.87
          677       6369.87
          678       6369.87
          679       6369.87
          680       6369.87
          681       6369.87
          682       6369.87
          683       6369.87
          684       6369.87
          685       6369.87
          686       6369.87
          687       6369.87
          688       6369.87
          689       6369.87
          690       6369.87
          691       6369.87
          692       6369.87
          693       6369.87
          694       6369.87
          695       6369.87
          696       6369.87
          697       6369.87
          698       6369.87
          699       6369.87
          700       6369.87
          701       6369.87
          702       6369.87
          703       6369.87
          704       6369.87
          705       6369.87
          706       6369.87
          707       6369.87
          708       6369.87
          709       6369.87
          710       6369.87
          711       6369.87
          712       6369.87
          713       6369.87
          714       6369.87
          715       6369.87
          716       6369.87
          717       6369.87
          718       6369.87
          719       6369.87
          720       6369.87
          721       6369.87
          722       6369.87
          723       6369.87
          724       6369.87
          725       6369.87
          726       6369.87
          727       6369.87
          728       6369.87
          729       6369.87
          730       6369.87
          731       6369.87
          732       6369.87
          733       6369.87
          734       6369.87
          735       6369.87
          736       6369.87
          737       6369.87
          738       6369.87
          739       6369.87
          740       6369.87
          741       6369.87
          742       6369.87
          743       6369.87
          744       6369.87
          745       6369.87
          746       6369.87
          747       6369.87
          748       6369.87
          749       6369.87
          750       6369.87
          751       6369.87
          752       6369.87
          753       6369.87
          754       6369.87
          755       6369.87
          756       6369.87
          757       6369.87
          758       6369.87
          759       6369.87
          760       6369.87
          761       6369.87
          762       6369.87
          763       6369.87
          764       6369.87
          765       6369.87
          766       6369.87
          767       6369.87
          768       6369.87
          769       6369.87
          770       6369.87
          771       6369.87
          772       6369.87
          773       6369.87
          774       6369.87
          775       6369.87
          776       6369.87
          777       6369.87
          778       6369.87
          779       6369.87
          780       6369.87
          781       6369.87
          782       6369.87
          783       6369.87
          784       6369.87
          785       6369.87
          786       6369.87
          787       6369.87
          788       6369.87
          789       6369.87
          790       6369.87
          791       6369.87
          792       6369.87
          793       6369.87
          794       6369.87
          795       6369.87
          796       6369.87
          797       6369.87
          798       6369.87
          799       6369.87
          800       6369.87
          801       6369.87
          802       6369.87
          803       6369.87
          804       6369.87
          805       6369.87
          806       6369.87
          807       6369.87
          808       6369.87
          809       6369.87
          810       6369.87
          811       6369.87
          812       6369.87
          813       6369.87
          814       6369.87
          815       6369.87
          816       6369.87
          817       6369.87
          818       6369.87
          819       6369.87
          820       6369.87
          821       6369.87
          822       6369.87
          823       6369.87
          824       6369.87
          825       6369.87
          826       6369.87
          827       6369.87
          828       6369.87
          829       6369.87
          830       6369.87
          831       6369.87
          832       6369.87
          833       6369.87
          834       6369.87
          835       6369.87
          836       6369.87
          837       6369.87
          838       6369.87
          839       6369.87
          840       6369.87
          841       6369.87
          842       6369.87
          843       6369.87
          844       6369.87
          845       6369.87
          846       6369.87
          847       6369.87
          848       6369.87
          849       6369.87
          850       6369.87
          851       6369.87
          852       6369.87
          853       6369.87
          854       6369.87
          855       6369.87
          856       6369.87
          857       6369.87
          858       6369.87
          859       6369.87
          860       6369.87
          861       6369.87
          862       6369.87
          863       6369.87
          864       6369.87
          865       6369.87
          866       6369.87
          867       6369.87
          868       6369.87
          869       6369.87
          870       6369.87
          871       6369.87
          872       6369.87
          873       6369.87
          874       6369.87
          875       6369.87
          876       6369.87
          877       6369.87
          878       6369.87
          879       6369.87
          880       6369.87
          881       6369.87
          882       6369.87
          883       6369.87
          884       6369.87
          885       6369.87
          886       6369.87
          887       6369.87
          888       6369.87
          889       6369.87
          890       6369.87
          891       6369.87
          892       6369.87
          893       6369.87
          894       6369.87
          895       6369.87
          896       6369.87
          897       6369.87
          898       6369.87
          899       6369.87
          900       6369.87
          901       6369.86
          902       6369.86
          903       6369.86
          904       6369.86
          905       6369.86
          906       6369.86
          907       6369.86
          908       6369.86
          909       6369.86
          910       6369.86
          911       6369.86
          912       6369.86
          913       6369.86
          914       6369.86
          915       6369.86
          916       6369.86
          917       6369.86
          918       6369.86
          919       6369.86
          920       6369.86
          921       6369.86
          922       6369.86
          923       6369.86
          924       6369.86
          925       6369.86
          926       6369.86
          927       6369.86
          928       6369.86
          929       6369.86
          930       6369.86
          931       6369.86
          932       6369.86
          933       6369.86
          934       6369.86
          935       6369.86
          936       6369.86
          937       6369.86
          938       6369.86
          939       6369.86
          940       6369.86
          941       6369.86
          942       6369.86
          943       6369.86
          944       6369.86
          945       6369.86
          946       6369.86
          947       6369.86
          948       6369.86
          949       6369.86
          950       6369.86
          951       6369.86
          952       6369.86
          953       6369.86
          954       6369.86
          955       6369.86
          956       6369.86
          957       6369.86
          958       6369.86
          959       6369.86
          960       6369.86
          961       6369.86
          962       6369.86
          963       6369.86
          964       6369.86
          965       6369.86
          966       6369.86
          967       6369.86
          968       6369.86
          969       6369.86
          970       6369.86
          971       6369.86
          972       6369.86
          973       6369.86
          974       6369.86
          975       6369.86
          976       6369.86
          977       6369.86
          978       6369.86
          979       6369.86
          980       6369.86
          981       6369.86
          982       6369.86
          983       6369.86
          984       6369.86
          985       6369.86
          986       6369.86
          987       6369.86
          988       6369.86
          989       6369.86
          990       6369.86
          991       6369.86
          992       6369.86
          993       6369.86
          994       6369.86
          995       6369.86
          996       6369.86
          997       6369.86
          998       6369.86
          999       6369.86
         1000       6369.86
         1001       6369.86
         1002       6369.86
         1003       6369.86
         1004       6369.86
         1005       6369.86
         1006       6369.86
         1007       6369.86
         1008       6369.86
         1009       6369.86
         1010       6369.86
         1011       6369.86
         1012       6369.86
         1013       6369.86
         1014       6369.86
         1015       6369.86
         1016       6369.86
         1017       6369.86
         1018       6369.86
         1019       6369.86
         1020       6369.86
         1021       6369.86
         1022       6369.86
         1023       6369.86
         1024       6369.86
         1025       6369.86
         1026       6369.86
         1027       6369.86
         1028       6369.86
         1029       6369.86
         1030       6369.86
         1031       6369.86
         1032       6369.86
         1033       6369.86
         1034       6369.86
         1035       6369.86
         1036       6369.86
         1037       6369.86
         1038       6369.86
         1039       6369.86
         1040       6369.86
         1041       6369.86
         1042       6369.86
         1043       6369.86
         1044       6369.86
         1045       6369.86
         1046       6369.86
         1047       6369.86
         1048       6369.86
         1049       6369.86
         1050       6369.86
         1051       6369.86
         1052       6369.86
         1053       6369.86
         1054       6369.86
         1055       6369.86
         1056       6369.86
         1057       6369.86
         1058       6369.86
         1059       6369.86
         1060       6369.86
         1061       6369.86
         1062       6369.86
         1063       6369.86
         1064       6369.86
         1065       6369.86
         1066       6369.86
         1067       6369.86
         1068       6369.86