0.000000e+00 
2.500000e+01 
5.000000e+01 
7.500000e+01 
1.000000e+02 
1.250000e+02 
1.500000e+02 
1.750000e+02 
2.000000e+02 
2.250000e+02 
2.500000e+02 
2.750000e+02 
3.000000e+02 
3.218202e+02 
3.436405e+02 
3.654607e+02 
3.872810e+02 
4.076963e+02 
4.281117e+02 
4.485271e+02 
4.689424e+02 
4.904368e+02 
5.119312e+02 
5.334255e+02 
5.549199e+02 
5.757062e+02 
5.964926e+02 
6.172790e+02 
6.380653e+02 
6.630653e+02 
6.880653e+02 
7.130653e+02 
7.380653e+02 
7.630653e+02 
7.880653e+02 
8.130653e+02 
8.380653e+02 
8.630653e+02 
8.880653e+02 
9.130653e+02 
9.380653e+02 
9.535490e+02 
9.690327e+02 
9.845163e+02 
1.000000e+03 
