# Probe 0 (0.05 0.05 0.005)
#       Probe             0
#        Time
         0.01   1.93895e-11
         0.02   3.29868e-10
         0.03   1.73603e-09
         0.04   5.62322e-09
         0.05   1.40596e-08
         0.06   2.97208e-08
         0.07   5.59095e-08
         0.08   9.65551e-08
         0.09   1.56214e-07
          0.1   2.40071e-07
         0.11   3.53935e-07
         0.12   5.04244e-07
         0.13   6.98062e-07
         0.14   9.43079e-07
         0.15   1.24761e-06
         0.16   1.62061e-06
         0.17   2.07163e-06
         0.18   2.61087e-06
         0.19   3.24915e-06
          0.2   3.99793e-06
         0.21   4.86925e-06
         0.22   5.87582e-06
         0.23   7.03094e-06
