# Probe 0 (0.05 0.05 0.005)
#       Probe             0
#        Time
         0.01          0.04
         0.02          0.04
         0.03          0.04
         0.04          0.04
         0.05          0.04
         0.06     0.0399999
         0.07     0.0399999
         0.08     0.0399999
         0.09     0.0399998
          0.1     0.0399997
         0.11     0.0399996
         0.12     0.0399995
         0.13     0.0399993
         0.14      0.039999
         0.15     0.0399987
         0.16     0.0399984
         0.17     0.0399979
         0.18     0.0399974
         0.19     0.0399967
          0.2      0.039996
         0.21     0.0399951
         0.22     0.0399941
         0.23     0.0399929
