# Probe 0 (0.05 0.05 0.005)
#       Probe             0
#        Time
       7500.5     0.0395116
         7501     0.0395116
       7501.5     0.0395117
         7502     0.0395118
       7502.5     0.0395118
         7503     0.0395119
       7503.5     0.0395119
         7504      0.039512
       7504.5      0.039512
         7505     0.0395121
       7505.5     0.0395122
         7506     0.0395122
       7506.5     0.0395123
         7507     0.0395123
       7507.5     0.0395124
         7508     0.0395125
       7508.5     0.0395125
         7509     0.0395126
       7509.5     0.0395126
         7510     0.0395127
       7510.5     0.0395128
         7511     0.0395128
       7511.5     0.0395129
         7512     0.0395129
       7512.5      0.039513
         7513      0.039513
       7513.5     0.0395131
         7514     0.0395132
       7514.5     0.0395132
         7515     0.0395133
       7515.5     0.0395133
         7516     0.0395134
       7516.5     0.0395135
         7517     0.0395135
       7517.5     0.0395136
         7518     0.0395136
       7518.5     0.0395137
         7519     0.0395138
       7519.5     0.0395138
         7520     0.0395139
       7520.5     0.0395139
         7521      0.039514
       7521.5      0.039514
         7522     0.0395141
       7522.5     0.0395142
         7523     0.0395142
       7523.5     0.0395143
         7524     0.0395143
       7524.5     0.0395144
         7525     0.0395145
       7525.5     0.0395145
         7526     0.0395146
       7526.5     0.0395146
         7527     0.0395147
       7527.5     0.0395148
         7528     0.0395148
       7528.5     0.0395149
         7529     0.0395149
       7529.5      0.039515
         7530      0.039515
       7530.5     0.0395151
         7531     0.0395152
       7531.5     0.0395152
         7532     0.0395153
       7532.5     0.0395153
         7533     0.0395154
       7533.5     0.0395155
         7534     0.0395155
       7534.5     0.0395156
         7535     0.0395156
       7535.5     0.0395157
         7536     0.0395157
       7536.5     0.0395158
         7537     0.0395159
       7537.5     0.0395159
         7538      0.039516
       7538.5      0.039516
         7539     0.0395161
       7539.5     0.0395162
         7540     0.0395162
       7540.5     0.0395163
         7541     0.0395163
       7541.5     0.0395164
         7542     0.0395164
       7542.5     0.0395165
         7543     0.0395166
       7543.5     0.0395166
         7544     0.0395167
       7544.5     0.0395167
         7545     0.0395168
       7545.5     0.0395169
         7546     0.0395169
       7546.5      0.039517
         7547      0.039517
       7547.5     0.0395171
         7548     0.0395171
       7548.5     0.0395172
         7549     0.0395173
       7549.5     0.0395173
         7550     0.0395174
       7550.5     0.0395174
         7551     0.0395175
       7551.5     0.0395176
         7552     0.0395176
       7552.5     0.0395177
         7553     0.0395177
       7553.5     0.0395178
         7554     0.0395178
       7554.5     0.0395179
         7555      0.039518
       7555.5      0.039518
         7556     0.0395181
       7556.5     0.0395181
         7557     0.0395182
       7557.5     0.0395183
         7558     0.0395183
       7558.5     0.0395184
         7559     0.0395184
       7559.5     0.0395185
         7560     0.0395185
       7560.5     0.0395186
         7561     0.0395187
       7561.5     0.0395187
         7562     0.0395188
       7562.5     0.0395188
         7563     0.0395189
       7563.5     0.0395189
         7564      0.039519
       7564.5     0.0395191
         7565     0.0395191
       7565.5     0.0395192
         7566     0.0395192
       7566.5     0.0395193
         7567     0.0395194
       7567.5     0.0395194
         7568     0.0395195
       7568.5     0.0395195
         7569     0.0395196
       7569.5     0.0395196
         7570     0.0395197
       7570.5     0.0395198
         7571     0.0395198
       7571.5     0.0395199
         7572     0.0395199
       7572.5       0.03952
         7573       0.03952
       7573.5     0.0395201
         7574     0.0395202
       7574.5     0.0395202
         7575     0.0395203
       7575.5     0.0395203
         7576     0.0395204
       7576.5     0.0395204
         7577     0.0395205
       7577.5     0.0395206
         7578     0.0395206
       7578.5     0.0395207
         7579     0.0395207
       7579.5     0.0395208
         7580     0.0395209
       7580.5     0.0395209
         7581      0.039521
       7581.5      0.039521
         7582     0.0395211
       7582.5     0.0395211
         7583     0.0395212
       7583.5     0.0395213
         7584     0.0395213
       7584.5     0.0395214
         7585     0.0395214
       7585.5     0.0395215
         7586     0.0395215
       7586.5     0.0395216
         7587     0.0395217
       7587.5     0.0395217
         7588     0.0395218
       7588.5     0.0395218
         7589     0.0395219
       7589.5     0.0395219
         7590      0.039522
       7590.5     0.0395221
         7591     0.0395221
       7591.5     0.0395222
         7592     0.0395222
       7592.5     0.0395223
         7593     0.0395223
       7593.5     0.0395224
         7594     0.0395225
       7594.5     0.0395225
         7595     0.0395226
       7595.5     0.0395226
         7596     0.0395227
       7596.5     0.0395227
         7597     0.0395228
       7597.5     0.0395229
         7598     0.0395229
       7598.5      0.039523
         7599      0.039523
       7599.5     0.0395231
         7600     0.0395231
       7600.5     0.0395232
         7601     0.0395233
       7601.5     0.0395233
         7602     0.0395234
       7602.5     0.0395234
         7603     0.0395235
       7603.5     0.0395235
         7604     0.0395236
       7604.5     0.0395237
         7605     0.0395237
       7605.5     0.0395238
         7606     0.0395238
       7606.5     0.0395239
         7607     0.0395239
       7607.5      0.039524
         7608     0.0395241
       7608.5     0.0395241
         7609     0.0395242
       7609.5     0.0395242
         7610     0.0395243
       7610.5     0.0395243
         7611     0.0395244
       7611.5     0.0395245
         7612     0.0395245
       7612.5     0.0395246
         7613     0.0395246
       7613.5     0.0395247
         7614     0.0395247
       7614.5     0.0395248
         7615     0.0395249
       7615.5     0.0395249
         7616      0.039525
       7616.5      0.039525
         7617     0.0395251
       7617.5     0.0395251
         7618     0.0395252
       7618.5     0.0395253
         7619     0.0395253
       7619.5     0.0395254
         7620     0.0395254
       7620.5     0.0395255
         7621     0.0395255
       7621.5     0.0395256
         7622     0.0395257
       7622.5     0.0395257
         7623     0.0395258
       7623.5     0.0395258
         7624     0.0395259
       7624.5     0.0395259
         7625      0.039526
       7625.5     0.0395261
         7626     0.0395261
       7626.5     0.0395262
         7627     0.0395262
       7627.5     0.0395263
         7628     0.0395263
       7628.5     0.0395264
         7629     0.0395264
       7629.5     0.0395265
         7630     0.0395266
       7630.5     0.0395266
         7631     0.0395267
       7631.5     0.0395267
         7632     0.0395268
       7632.5     0.0395268
         7633     0.0395269
       7633.5      0.039527
         7634      0.039527
       7634.5     0.0395271
         7635     0.0395271
       7635.5     0.0395272
         7636     0.0395272
       7636.5     0.0395273
         7637     0.0395274
       7637.5     0.0395274
         7638     0.0395275
       7638.5     0.0395275
         7639     0.0395276
       7639.5     0.0395276
         7640     0.0395277
       7640.5     0.0395277
         7641     0.0395278
       7641.5     0.0395279
         7642     0.0395279
       7642.5      0.039528
         7643      0.039528
       7643.5     0.0395281
         7644     0.0395281
       7644.5     0.0395282
         7645     0.0395283
       7645.5     0.0395283
         7646     0.0395284
       7646.5     0.0395284
         7647     0.0395285
       7647.5     0.0395285
         7648     0.0395286
       7648.5     0.0395287
         7649     0.0395287
       7649.5     0.0395288
         7650     0.0395288
       7650.5     0.0395289
         7651     0.0395289
       7651.5      0.039529
         7652      0.039529
       7652.5     0.0395291
         7653     0.0395292
       7653.5     0.0395292
         7654     0.0395293
       7654.5     0.0395293
         7655     0.0395294
       7655.5     0.0395294
         7656     0.0395295
       7656.5     0.0395296
         7657     0.0395296
       7657.5     0.0395297
         7658     0.0395297
       7658.5     0.0395298
         7659     0.0395298
       7659.5     0.0395299
         7660     0.0395299
       7660.5       0.03953
         7661     0.0395301
       7661.5     0.0395301
         7662     0.0395302
       7662.5     0.0395302
         7663     0.0395303
       7663.5     0.0395303
         7664     0.0395304
       7664.5     0.0395304
         7665     0.0395305
       7665.5     0.0395306
         7666     0.0395306
       7666.5     0.0395307
         7667     0.0395307
       7667.5     0.0395308
         7668     0.0395308
       7668.5     0.0395309
         7669      0.039531
       7669.5      0.039531
         7670     0.0395311
       7670.5     0.0395311
         7671     0.0395312
       7671.5     0.0395312
         7672     0.0395313
       7672.5     0.0395313
         7673     0.0395314
       7673.5     0.0395315
         7674     0.0395315
       7674.5     0.0395316
         7675     0.0395316
       7675.5     0.0395317
         7676     0.0395317
       7676.5     0.0395318
         7677     0.0395318
       7677.5     0.0395319
         7678      0.039532
       7678.5      0.039532
         7679     0.0395321
       7679.5     0.0395321
         7680     0.0395322
       7680.5     0.0395322
         7681     0.0395323
       7681.5     0.0395323
         7682     0.0395324
       7682.5     0.0395325
         7683     0.0395325
       7683.5     0.0395326
         7684     0.0395326
       7684.5     0.0395327
         7685     0.0395327
       7685.5     0.0395328
         7686     0.0395328
       7686.5     0.0395329
         7687      0.039533
       7687.5      0.039533
         7688     0.0395331
       7688.5     0.0395331
         7689     0.0395332
       7689.5     0.0395332
         7690     0.0395333
       7690.5     0.0395333
         7691     0.0395334
       7691.5     0.0395335
         7692     0.0395335
       7692.5     0.0395336
         7693     0.0395336
       7693.5     0.0395337
         7694     0.0395337
       7694.5     0.0395338
         7695     0.0395338
       7695.5     0.0395339
         7696      0.039534
       7696.5      0.039534
         7697     0.0395341
       7697.5     0.0395341
         7698     0.0395342
       7698.5     0.0395342
         7699     0.0395343
       7699.5     0.0395343
         7700     0.0395344
       7700.5     0.0395345
         7701     0.0395345
       7701.5     0.0395346
         7702     0.0395346
       7702.5     0.0395347
         7703     0.0395347
       7703.5     0.0395348
         7704     0.0395348
       7704.5     0.0395349
         7705      0.039535
       7705.5      0.039535
         7706     0.0395351
       7706.5     0.0395351
         7707     0.0395352
       7707.5     0.0395352
         7708     0.0395353
       7708.5     0.0395353
         7709     0.0395354
       7709.5     0.0395355
         7710     0.0395355
       7710.5     0.0395356
         7711     0.0395356
       7711.5     0.0395357
         7712     0.0395357
       7712.5     0.0395358
         7713     0.0395358
       7713.5     0.0395359
         7714     0.0395359
       7714.5      0.039536
         7715     0.0395361
       7715.5     0.0395361
         7716     0.0395362
       7716.5     0.0395362
         7717     0.0395363
       7717.5     0.0395363
         7718     0.0395364
       7718.5     0.0395364
         7719     0.0395365
       7719.5     0.0395366
         7720     0.0395366
       7720.5     0.0395367
         7721     0.0395367
       7721.5     0.0395368
         7722     0.0395368
       7722.5     0.0395369
         7723     0.0395369
       7723.5      0.039537
         7724      0.039537
       7724.5     0.0395371
         7725     0.0395372
       7725.5     0.0395372
         7726     0.0395373
       7726.5     0.0395373
         7727     0.0395374
       7727.5     0.0395374
         7728     0.0395375
       7728.5     0.0395375
         7729     0.0395376
       7729.5     0.0395377
         7730     0.0395377
       7730.5     0.0395378
         7731     0.0395378
       7731.5     0.0395379
         7732     0.0395379
       7732.5      0.039538
         7733      0.039538
       7733.5     0.0395381
         7734     0.0395381
       7734.5     0.0395382
         7735     0.0395383
       7735.5     0.0395383
         7736     0.0395384
       7736.5     0.0395384
         7737     0.0395385
       7737.5     0.0395385
         7738     0.0395386
       7738.5     0.0395386
         7739     0.0395387
       7739.5     0.0395387
         7740     0.0395388
       7740.5     0.0395389
         7741     0.0395389
       7741.5      0.039539
         7742      0.039539
       7742.5     0.0395391
         7743     0.0395391
       7743.5     0.0395392
         7744     0.0395392
       7744.5     0.0395393
         7745     0.0395393
       7745.5     0.0395394
         7746     0.0395395
       7746.5     0.0395395
         7747     0.0395396
       7747.5     0.0395396
         7748     0.0395397
       7748.5     0.0395397
         7749     0.0395398
       7749.5     0.0395398
         7750     0.0395399
       7750.5     0.0395399
         7751       0.03954
       7751.5     0.0395401
         7752     0.0395401
       7752.5     0.0395402
         7753     0.0395402
       7753.5     0.0395403
         7754     0.0395403
       7754.5     0.0395404
         7755     0.0395404
       7755.5     0.0395405
         7756     0.0395405
       7756.5     0.0395406
         7757     0.0395407
       7757.5     0.0395407
         7758     0.0395408
       7758.5     0.0395408
         7759     0.0395409
       7759.5     0.0395409
         7760      0.039541
       7760.5      0.039541
         7761     0.0395411
       7761.5     0.0395411
         7762     0.0395412
       7762.5     0.0395412
         7763     0.0395413
       7763.5     0.0395414
         7764     0.0395414
       7764.5     0.0395415
         7765     0.0395415
       7765.5     0.0395416
         7766     0.0395416
       7766.5     0.0395417
         7767     0.0395417
       7767.5     0.0395418
         7768     0.0395418
       7768.5     0.0395419
         7769      0.039542
       7769.5      0.039542
         7770     0.0395421
       7770.5     0.0395421
         7771     0.0395422
       7771.5     0.0395422
         7772     0.0395423
       7772.5     0.0395423
         7773     0.0395424
       7773.5     0.0395424
         7774     0.0395425
       7774.5     0.0395425
         7775     0.0395426
       7775.5     0.0395427
         7776     0.0395427
       7776.5     0.0395428
         7777     0.0395428
       7777.5     0.0395429
         7778     0.0395429
       7778.5      0.039543
         7779      0.039543
       7779.5     0.0395431
         7780     0.0395431
       7780.5     0.0395432
         7781     0.0395432
       7781.5     0.0395433
         7782     0.0395434
       7782.5     0.0395434
         7783     0.0395435
       7783.5     0.0395435
         7784     0.0395436
       7784.5     0.0395436
         7785     0.0395437
       7785.5     0.0395437
         7786     0.0395438
       7786.5     0.0395438
         7787     0.0395439
       7787.5     0.0395439
         7788      0.039544
       7788.5     0.0395441
         7789     0.0395441
       7789.5     0.0395442
         7790     0.0395442
       7790.5     0.0395443
         7791     0.0395443
       7791.5     0.0395444
         7792     0.0395444
       7792.5     0.0395445
         7793     0.0395445
       7793.5     0.0395446
         7794     0.0395446
       7794.5     0.0395447
         7795     0.0395448
       7795.5     0.0395448
         7796     0.0395449
       7796.5     0.0395449
         7797      0.039545
       7797.5      0.039545
         7798     0.0395451
       7798.5     0.0395451
         7799     0.0395452
       7799.5     0.0395452
         7800     0.0395453
       7800.5     0.0395453
         7801     0.0395454
       7801.5     0.0395455
         7802     0.0395455
       7802.5     0.0395456
         7803     0.0395456
       7803.5     0.0395457
         7804     0.0395457
       7804.5     0.0395458
         7805     0.0395458
       7805.5     0.0395459
         7806     0.0395459
       7806.5      0.039546
         7807      0.039546
       7807.5     0.0395461
         7808     0.0395461
       7808.5     0.0395462
         7809     0.0395463
       7809.5     0.0395463
         7810     0.0395464
       7810.5     0.0395464
         7811     0.0395465
       7811.5     0.0395465
         7812     0.0395466
       7812.5     0.0395466
         7813     0.0395467
       7813.5     0.0395467
         7814     0.0395468
       7814.5     0.0395468
         7815     0.0395469
       7815.5     0.0395469
         7816      0.039547
       7816.5     0.0395471
         7817     0.0395471
       7817.5     0.0395472
         7818     0.0395472
       7818.5     0.0395473
         7819     0.0395473
       7819.5     0.0395474
         7820     0.0395474
       7820.5     0.0395475
         7821     0.0395475
       7821.5     0.0395476
         7822     0.0395476
       7822.5     0.0395477
         7823     0.0395477
       7823.5     0.0395478
         7824     0.0395479
       7824.5     0.0395479
         7825      0.039548
       7825.5      0.039548
         7826     0.0395481
       7826.5     0.0395481
         7827     0.0395482
       7827.5     0.0395482
         7828     0.0395483
       7828.5     0.0395483
         7829     0.0395484
       7829.5     0.0395484
         7830     0.0395485
       7830.5     0.0395485
         7831     0.0395486
       7831.5     0.0395486
         7832     0.0395487
       7832.5     0.0395488
         7833     0.0395488
       7833.5     0.0395489
         7834     0.0395489
       7834.5      0.039549
         7835      0.039549
       7835.5     0.0395491
         7836     0.0395491
       7836.5     0.0395492
         7837     0.0395492
       7837.5     0.0395493
         7838     0.0395493
       7838.5     0.0395494
         7839     0.0395494
       7839.5     0.0395495
         7840     0.0395495
       7840.5     0.0395496
         7841     0.0395497
       7841.5     0.0395497
         7842     0.0395498
       7842.5     0.0395498
         7843     0.0395499
       7843.5     0.0395499
         7844       0.03955
       7844.5       0.03955
         7845     0.0395501
       7845.5     0.0395501
         7846     0.0395502
       7846.5     0.0395502
         7847     0.0395503
       7847.5     0.0395503
         7848     0.0395504
       7848.5     0.0395504
         7849     0.0395505
       7849.5     0.0395506
         7850     0.0395506
       7850.5     0.0395507
         7851     0.0395507
       7851.5     0.0395508
         7852     0.0395508
       7852.5     0.0395509
         7853     0.0395509
       7853.5      0.039551
         7854      0.039551
       7854.5     0.0395511
         7855     0.0395511
       7855.5     0.0395512
         7856     0.0395512
       7856.5     0.0395513
         7857     0.0395513
       7857.5     0.0395514
         7858     0.0395514
       7858.5     0.0395515
         7859     0.0395516
       7859.5     0.0395516
         7860     0.0395517
       7860.5     0.0395517
         7861     0.0395518
       7861.5     0.0395518
         7862     0.0395519
       7862.5     0.0395519
         7863      0.039552
       7863.5      0.039552
         7864     0.0395521
       7864.5     0.0395521
         7865     0.0395522
       7865.5     0.0395522
         7866     0.0395523
       7866.5     0.0395523
         7867     0.0395524
       7867.5     0.0395524
         7868     0.0395525
       7868.5     0.0395525
         7869     0.0395526
       7869.5     0.0395527
         7870     0.0395527
       7870.5     0.0395528
         7871     0.0395528
       7871.5     0.0395529
         7872     0.0395529
       7872.5      0.039553
         7873      0.039553
       7873.5     0.0395531
         7874     0.0395531
       7874.5     0.0395532
         7875     0.0395532
       7875.5     0.0395533
         7876     0.0395533
       7876.5     0.0395534
         7877     0.0395534
       7877.5     0.0395535
         7878     0.0395535
       7878.5     0.0395536
         7879     0.0395536
       7879.5     0.0395537
         7880     0.0395537
       7880.5     0.0395538
         7881     0.0395539
       7881.5     0.0395539
         7882      0.039554
       7882.5      0.039554
         7883     0.0395541
       7883.5     0.0395541
         7884     0.0395542
       7884.5     0.0395542
         7885     0.0395543
       7885.5     0.0395543
         7886     0.0395544
       7886.5     0.0395544
         7887     0.0395545
       7887.5     0.0395545
         7888     0.0395546
       7888.5     0.0395546
         7889     0.0395547
       7889.5     0.0395547
         7890     0.0395548
       7890.5     0.0395548
         7891     0.0395549
       7891.5     0.0395549
         7892      0.039555
       7892.5     0.0395551
         7893     0.0395551
       7893.5     0.0395552
         7894     0.0395552
       7894.5     0.0395553
         7895     0.0395553
       7895.5     0.0395554
         7896     0.0395554
       7896.5     0.0395555
         7897     0.0395555
       7897.5     0.0395556
         7898     0.0395556
       7898.5     0.0395557
         7899     0.0395557
       7899.5     0.0395558
         7900     0.0395558
       7900.5     0.0395559
         7901     0.0395559
       7901.5      0.039556
         7902      0.039556
       7902.5     0.0395561
         7903     0.0395561
       7903.5     0.0395562
         7904     0.0395562
       7904.5     0.0395563
         7905     0.0395563
       7905.5     0.0395564
         7906     0.0395565
       7906.5     0.0395565
         7907     0.0395566
       7907.5     0.0395566
         7908     0.0395567
       7908.5     0.0395567
         7909     0.0395568
       7909.5     0.0395568
         7910     0.0395569
       7910.5     0.0395569
         7911      0.039557
       7911.5      0.039557
         7912     0.0395571
       7912.5     0.0395571
         7913     0.0395572
       7913.5     0.0395572
         7914     0.0395573
       7914.5     0.0395573
         7915     0.0395574
       7915.5     0.0395574
         7916     0.0395575
       7916.5     0.0395575
         7917     0.0395576
       7917.5     0.0395576
         7918     0.0395577
       7918.5     0.0395577
         7919     0.0395578
       7919.5     0.0395578
         7920     0.0395579
       7920.5     0.0395579
         7921      0.039558
       7921.5     0.0395581
         7922     0.0395581
       7922.5     0.0395582
         7923     0.0395582
       7923.5     0.0395583
         7924     0.0395583
       7924.5     0.0395584
         7925     0.0395584
       7925.5     0.0395585
         7926     0.0395585
       7926.5     0.0395586
         7927     0.0395586
       7927.5     0.0395587
         7928     0.0395587
       7928.5     0.0395588
         7929     0.0395588
       7929.5     0.0395589
         7930     0.0395589
       7930.5      0.039559
         7931      0.039559
       7931.5     0.0395591
         7932     0.0395591
       7932.5     0.0395592
         7933     0.0395592
       7933.5     0.0395593
         7934     0.0395593
       7934.5     0.0395594
         7935     0.0395594
       7935.5     0.0395595
         7936     0.0395595
       7936.5     0.0395596
         7937     0.0395596
       7937.5     0.0395597
         7938     0.0395597
       7938.5     0.0395598
         7939     0.0395598
       7939.5     0.0395599
         7940       0.03956
       7940.5       0.03956
         7941     0.0395601
       7941.5     0.0395601
         7942     0.0395602
       7942.5     0.0395602
         7943     0.0395603
       7943.5     0.0395603
         7944     0.0395604
       7944.5     0.0395604
         7945     0.0395605
       7945.5     0.0395605
         7946     0.0395606
       7946.5     0.0395606
         7947     0.0395607
       7947.5     0.0395607
         7948     0.0395608
       7948.5     0.0395608
         7949     0.0395609
       7949.5     0.0395609
         7950      0.039561
       7950.5      0.039561
         7951     0.0395611
       7951.5     0.0395611
         7952     0.0395612
       7952.5     0.0395612
         7953     0.0395613
       7953.5     0.0395613
         7954     0.0395614
       7954.5     0.0395614
         7955     0.0395615
       7955.5     0.0395615
         7956     0.0395616
       7956.5     0.0395616
         7957     0.0395617
       7957.5     0.0395617
         7958     0.0395618
       7958.5     0.0395618
         7959     0.0395619
       7959.5     0.0395619
         7960      0.039562
       7960.5      0.039562
         7961     0.0395621
       7961.5     0.0395621
         7962     0.0395622
       7962.5     0.0395622
         7963     0.0395623
       7963.5     0.0395623
         7964     0.0395624
       7964.5     0.0395624
         7965     0.0395625
       7965.5     0.0395626
         7966     0.0395626
       7966.5     0.0395627
         7967     0.0395627
       7967.5     0.0395628
         7968     0.0395628
       7968.5     0.0395629
         7969     0.0395629
       7969.5      0.039563
         7970      0.039563
       7970.5     0.0395631
         7971     0.0395631
       7971.5     0.0395632
         7972     0.0395632
       7972.5     0.0395633
         7973     0.0395633
       7973.5     0.0395634
         7974     0.0395634
       7974.5     0.0395635
         7975     0.0395635
       7975.5     0.0395636
         7976     0.0395636
       7976.5     0.0395637
         7977     0.0395637
       7977.5     0.0395638
         7978     0.0395638
       7978.5     0.0395639
         7979     0.0395639
       7979.5      0.039564
         7980      0.039564
       7980.5     0.0395641
         7981     0.0395641
       7981.5     0.0395642
         7982     0.0395642
       7982.5     0.0395643
         7983     0.0395643
       7983.5     0.0395644
         7984     0.0395644
       7984.5     0.0395645
         7985     0.0395645
       7985.5     0.0395646
         7986     0.0395646
       7986.5     0.0395647
         7987     0.0395647
       7987.5     0.0395648
         7988     0.0395648
       7988.5     0.0395649
         7989     0.0395649
       7989.5      0.039565
         7990      0.039565
       7990.5     0.0395651
         7991     0.0395651
       7991.5     0.0395652
         7992     0.0395652
       7992.5     0.0395653
         7993     0.0395653
       7993.5     0.0395654
         7994     0.0395654
       7994.5     0.0395655
         7995     0.0395655
       7995.5     0.0395656
         7996     0.0395656
       7996.5     0.0395657
         7997     0.0395657
       7997.5     0.0395658
         7998     0.0395658
       7998.5     0.0395659
         7999     0.0395659
       7999.5      0.039566
         8000      0.039566
       8000.5     0.0395661
         8001     0.0395661
       8001.5     0.0395662
         8002     0.0395662
       8002.5     0.0395663
         8003     0.0395663
       8003.5     0.0395664
         8004     0.0395664
       8004.5     0.0395665
         8005     0.0395665
       8005.5     0.0395666
         8006     0.0395666
       8006.5     0.0395667
         8007     0.0395667
       8007.5     0.0395668
         8008     0.0395668
       8008.5     0.0395669
         8009     0.0395669
       8009.5      0.039567
         8010      0.039567
       8010.5     0.0395671
         8011     0.0395671
       8011.5     0.0395672
         8012     0.0395672
       8012.5     0.0395673
         8013     0.0395673
       8013.5     0.0395674
         8014     0.0395674
       8014.5     0.0395675
         8015     0.0395675
       8015.5     0.0395676
         8016     0.0395676
       8016.5     0.0395677
         8017     0.0395677
       8017.5     0.0395678
         8018     0.0395678
       8018.5     0.0395679
         8019     0.0395679
       8019.5      0.039568
         8020      0.039568
       8020.5     0.0395681
         8021     0.0395681
       8021.5     0.0395682
         8022     0.0395682
       8022.5     0.0395683
         8023     0.0395683
       8023.5     0.0395684
         8024     0.0395684
       8024.5     0.0395685
         8025     0.0395685
       8025.5     0.0395686
         8026     0.0395686
       8026.5     0.0395687
         8027     0.0395687
       8027.5     0.0395688
         8028     0.0395688
       8028.5     0.0395689
         8029     0.0395689
       8029.5      0.039569
         8030      0.039569
       8030.5     0.0395691
         8031     0.0395691
       8031.5     0.0395692
         8032     0.0395692
       8032.5     0.0395693
         8033     0.0395693
       8033.5     0.0395694
         8034     0.0395694