# Probe 0 (0.05 0.05 0.005)
#       Probe             0
#        Time
       7500.5   0.000488401
         7501   0.000488342
       7501.5   0.000488283
         7502   0.000488224
       7502.5   0.000488165
         7503   0.000488106
       7503.5   0.000488047
         7504   0.000487988
       7504.5   0.000487929
         7505    0.00048787
       7505.5   0.000487811
         7506   0.000487752
       7506.5   0.000487693
         7507   0.000487634
       7507.5   0.000487575
         7508   0.000487516
       7508.5   0.000487457
         7509   0.000487398
       7509.5   0.000487339
         7510    0.00048728
       7510.5   0.000487221
         7511   0.000487162
       7511.5   0.000487103
         7512   0.000487044
       7512.5   0.000486985
         7513   0.000486926
       7513.5   0.000486868
         7514   0.000486809
       7514.5    0.00048675
         7515   0.000486691
       7515.5   0.000486632
         7516   0.000486573
       7516.5   0.000486515
         7517   0.000486456
       7517.5   0.000486397
         7518   0.000486338
       7518.5   0.000486279
         7519   0.000486221
       7519.5   0.000486162
         7520   0.000486103
       7520.5   0.000486044
         7521   0.000485986
       7521.5   0.000485927
         7522   0.000485868
       7522.5    0.00048581
         7523   0.000485751
       7523.5   0.000485692
         7524   0.000485634
       7524.5   0.000485575
         7525   0.000485516
       7525.5   0.000485458
         7526   0.000485399
       7526.5    0.00048534
         7527   0.000485282
       7527.5   0.000485223
         7528   0.000485165
       7528.5   0.000485106
         7529   0.000485047
       7529.5   0.000484989
         7530    0.00048493
       7530.5   0.000484872
         7531   0.000484813
       7531.5   0.000484755
         7532   0.000484696
       7532.5   0.000484638
         7533   0.000484579
       7533.5   0.000484521
         7534   0.000484462
       7534.5   0.000484404
         7535   0.000484345
       7535.5   0.000484287
         7536   0.000484229
       7536.5    0.00048417
         7537   0.000484112
       7537.5   0.000484053
         7538   0.000483995
       7538.5   0.000483937
         7539   0.000483878
       7539.5    0.00048382
         7540   0.000483761
       7540.5   0.000483703
         7541   0.000483645
       7541.5   0.000483586
         7542   0.000483528
       7542.5    0.00048347
         7543   0.000483412
       7543.5   0.000483353
         7544   0.000483295
       7544.5   0.000483237
         7545   0.000483178
       7545.5    0.00048312
         7546   0.000483062
       7546.5   0.000483004
         7547   0.000482946
       7547.5   0.000482887
         7548   0.000482829
       7548.5   0.000482771
         7549   0.000482713
       7549.5   0.000482655
         7550   0.000482596
       7550.5   0.000482538
         7551    0.00048248
       7551.5   0.000482422
         7552   0.000482364
       7552.5   0.000482306
         7553   0.000482248
       7553.5    0.00048219
         7554   0.000482131
       7554.5   0.000482073
         7555   0.000482015
       7555.5   0.000481957
         7556   0.000481899
       7556.5   0.000481841
         7557   0.000481783
       7557.5   0.000481725
         7558   0.000481667
       7558.5   0.000481609
         7559   0.000481551
       7559.5   0.000481493
         7560   0.000481435
       7560.5   0.000481377
         7561   0.000481319
       7561.5   0.000481261
         7562   0.000481203
       7562.5   0.000481146
         7563   0.000481088
       7563.5    0.00048103
         7564   0.000480972
       7564.5   0.000480914
         7565   0.000480856
       7565.5   0.000480798
         7566    0.00048074
       7566.5   0.000480682
         7567   0.000480625
       7567.5   0.000480567
         7568   0.000480509
       7568.5   0.000480451
         7569   0.000480393
       7569.5   0.000480336
         7570   0.000480278
       7570.5    0.00048022
         7571   0.000480162
       7571.5   0.000480105
         7572   0.000480047
       7572.5   0.000479989
         7573   0.000479931
       7573.5   0.000479874
         7574   0.000479816
       7574.5   0.000479758
         7575   0.000479701
       7575.5   0.000479643
         7576   0.000479585
       7576.5   0.000479528
         7577    0.00047947
       7577.5   0.000479412
         7578   0.000479355
       7578.5   0.000479297
         7579   0.000479239
       7579.5   0.000479182
         7580   0.000479124
       7580.5   0.000479067
         7581   0.000479009
       7581.5   0.000478952
         7582   0.000478894
       7582.5   0.000478837
         7583   0.000478779
       7583.5   0.000478721
         7584   0.000478664
       7584.5   0.000478606
         7585   0.000478549
       7585.5   0.000478491
         7586   0.000478434
       7586.5   0.000478377
         7587   0.000478319
       7587.5   0.000478262
         7588   0.000478204
       7588.5   0.000478147
         7589   0.000478089
       7589.5   0.000478032
         7590   0.000477975
       7590.5   0.000477917
         7591    0.00047786
       7591.5   0.000477802
         7592   0.000477745
       7592.5   0.000477688
         7593    0.00047763
       7593.5   0.000477573
         7594   0.000477516
       7594.5   0.000477458
         7595   0.000477401
       7595.5   0.000477344
         7596   0.000477287
       7596.5   0.000477229
         7597   0.000477172
       7597.5   0.000477115
         7598   0.000477058
       7598.5      0.000477
         7599   0.000476943
       7599.5   0.000476886
         7600   0.000476829
       7600.5   0.000476771
         7601   0.000476714
       7601.5   0.000476657
         7602     0.0004766
       7602.5   0.000476543
         7603   0.000476486
       7603.5   0.000476428
         7604   0.000476371
       7604.5   0.000476314
         7605   0.000476257
       7605.5     0.0004762
         7606   0.000476143
       7606.5   0.000476086
         7607   0.000476029
       7607.5   0.000475972
         7608   0.000475915
       7608.5   0.000475858
         7609   0.000475801
       7609.5   0.000475743
         7610   0.000475686
       7610.5   0.000475629
         7611   0.000475572
       7611.5   0.000475515
         7612   0.000475458
       7612.5   0.000475402
         7613   0.000475345
       7613.5   0.000475288
         7614   0.000475231
       7614.5   0.000475174
         7615   0.000475117
       7615.5    0.00047506
         7616   0.000475003
       7616.5   0.000474946
         7617   0.000474889
       7617.5   0.000474832
         7618   0.000474775
       7618.5   0.000474719
         7619   0.000474662
       7619.5   0.000474605
         7620   0.000474548
       7620.5   0.000474491
         7621   0.000474434
       7621.5   0.000474378
         7622   0.000474321
       7622.5   0.000474264
         7623   0.000474207
       7623.5   0.000474151
         7624   0.000474094
       7624.5   0.000474037
         7625    0.00047398
       7625.5   0.000473924
         7626   0.000473867
       7626.5    0.00047381
         7627   0.000473753
       7627.5   0.000473697
         7628    0.00047364
       7628.5   0.000473583
         7629   0.000473527
       7629.5    0.00047347
         7630   0.000473413
       7630.5   0.000473357
         7631     0.0004733
       7631.5   0.000473244
         7632   0.000473187
       7632.5    0.00047313
         7633   0.000473074
       7633.5   0.000473017
         7634   0.000472961
       7634.5   0.000472904
         7635   0.000472848
       7635.5   0.000472791
         7636   0.000472734
       7636.5   0.000472678
         7637   0.000472621
       7637.5   0.000472565
         7638   0.000472508
       7638.5   0.000472452
         7639   0.000472395
       7639.5   0.000472339
         7640   0.000472283
       7640.5   0.000472226
         7641    0.00047217
       7641.5   0.000472113
         7642   0.000472057
       7642.5      0.000472
         7643   0.000471944
       7643.5   0.000471888
         7644   0.000471831
       7644.5   0.000471775
         7645   0.000471718
       7645.5   0.000471662
         7646   0.000471606
       7646.5   0.000471549
         7647   0.000471493
       7647.5   0.000471437
         7648    0.00047138
       7648.5   0.000471324
         7649   0.000471268
       7649.5   0.000471212
         7650   0.000471155
       7650.5   0.000471099
         7651   0.000471043
       7651.5   0.000470987
         7652    0.00047093
       7652.5   0.000470874
         7653   0.000470818
       7653.5   0.000470762
         7654   0.000470706
       7654.5   0.000470649
         7655   0.000470593
       7655.5   0.000470537
         7656   0.000470481
       7656.5   0.000470425
         7657   0.000470369
       7657.5   0.000470312
         7658   0.000470256
       7658.5     0.0004702
         7659   0.000470144
       7659.5   0.000470088
         7660   0.000470032
       7660.5   0.000469976
         7661    0.00046992
       7661.5   0.000469864
         7662   0.000469808
       7662.5   0.000469752
         7663   0.000469696
       7663.5    0.00046964
         7664   0.000469584
       7664.5   0.000469528
         7665   0.000469472
       7665.5   0.000469416
         7666    0.00046936
       7666.5   0.000469304
         7667   0.000469248
       7667.5   0.000469192
         7668   0.000469136
       7668.5    0.00046908
         7669   0.000469024
       7669.5   0.000468968
         7670   0.000468912
       7670.5   0.000468856
         7671     0.0004688
       7671.5   0.000468744
         7672   0.000468689
       7672.5   0.000468633
         7673   0.000468577
       7673.5   0.000468521
         7674   0.000468465
       7674.5   0.000468409
         7675   0.000468354
       7675.5   0.000468298
         7676   0.000468242
       7676.5   0.000468186
         7677    0.00046813
       7677.5   0.000468075
         7678   0.000468019
       7678.5   0.000467963
         7679   0.000467907
       7679.5   0.000467852
         7680   0.000467796
       7680.5    0.00046774
         7681   0.000467685
       7681.5   0.000467629
         7682   0.000467573
       7682.5   0.000467518
         7683   0.000467462
       7683.5   0.000467406
         7684   0.000467351
       7684.5   0.000467295
         7685   0.000467239
       7685.5   0.000467184
         7686   0.000467128
       7686.5   0.000467072
         7687   0.000467017
       7687.5   0.000466961
         7688   0.000466906
       7688.5    0.00046685
         7689   0.000466795
       7689.5   0.000466739
         7690   0.000466684
       7690.5   0.000466628
         7691   0.000466573
       7691.5   0.000466517
         7692   0.000466462
       7692.5   0.000466406
         7693   0.000466351
       7693.5   0.000466295
         7694    0.00046624
       7694.5   0.000466184
         7695   0.000466129
       7695.5   0.000466073
         7696   0.000466018
       7696.5   0.000465962
         7697   0.000465907
       7697.5   0.000465852
         7698   0.000465796
       7698.5   0.000465741
         7699   0.000465685
       7699.5    0.00046563
         7700   0.000465575
       7700.5   0.000465519
         7701   0.000465464
       7701.5   0.000465409
         7702   0.000465353
       7702.5   0.000465298
         7703   0.000465243
       7703.5   0.000465188
         7704   0.000465132
       7704.5   0.000465077
         7705   0.000465022
       7705.5   0.000464966
         7706   0.000464911
       7706.5   0.000464856
         7707   0.000464801
       7707.5   0.000464746
         7708    0.00046469
       7708.5   0.000464635
         7709    0.00046458
       7709.5   0.000464525
         7710    0.00046447
       7710.5   0.000464414
         7711   0.000464359
       7711.5   0.000464304
         7712   0.000464249
       7712.5   0.000464194
         7713   0.000464139
       7713.5   0.000464084
         7714   0.000464029
       7714.5   0.000463973
         7715   0.000463918
       7715.5   0.000463863
         7716   0.000463808
       7716.5   0.000463753
         7717   0.000463698
       7717.5   0.000463643
         7718   0.000463588
       7718.5   0.000463533
         7719   0.000463478
       7719.5   0.000463423
         7720   0.000463368
       7720.5   0.000463313
         7721   0.000463258
       7721.5   0.000463203
         7722   0.000463148
       7722.5   0.000463093
         7723   0.000463038
       7723.5   0.000462983
         7724   0.000462929
       7724.5   0.000462874
         7725   0.000462819
       7725.5   0.000462764
         7726   0.000462709
       7726.5   0.000462654
         7727   0.000462599
       7727.5   0.000462544
         7728   0.000462489
       7728.5   0.000462435
         7729    0.00046238
       7729.5   0.000462325
         7730    0.00046227
       7730.5   0.000462215
         7731   0.000462161
       7731.5   0.000462106
         7732   0.000462051
       7732.5   0.000461996
         7733   0.000461942
       7733.5   0.000461887
         7734   0.000461832
       7734.5   0.000461777
         7735   0.000461723
       7735.5   0.000461668
         7736   0.000461613
       7736.5   0.000461558
         7737   0.000461504
       7737.5   0.000461449
         7738   0.000461394
       7738.5    0.00046134
         7739   0.000461285
       7739.5   0.000461231
         7740   0.000461176
       7740.5   0.000461121
         7741   0.000461067
       7741.5   0.000461012
         7742   0.000460957
       7742.5   0.000460903
         7743   0.000460848
       7743.5   0.000460794
         7744   0.000460739
       7744.5   0.000460685
         7745    0.00046063
       7745.5   0.000460576
         7746   0.000460521
       7746.5   0.000460466
         7747   0.000460412
       7747.5   0.000460357
         7748   0.000460303
       7748.5   0.000460249
         7749   0.000460194
       7749.5    0.00046014
         7750   0.000460085
       7750.5   0.000460031
         7751   0.000459976
       7751.5   0.000459922
         7752   0.000459867
       7752.5   0.000459813
         7753   0.000459759
       7753.5   0.000459704
         7754    0.00045965
       7754.5   0.000459595
         7755   0.000459541
       7755.5   0.000459487
         7756   0.000459432
       7756.5   0.000459378
         7757   0.000459324
       7757.5   0.000459269
         7758   0.000459215
       7758.5   0.000459161
         7759   0.000459107
       7759.5   0.000459052
         7760   0.000458998
       7760.5   0.000458944
         7761   0.000458889
       7761.5   0.000458835
         7762   0.000458781
       7762.5   0.000458727
         7763   0.000458673
       7763.5   0.000458618
         7764   0.000458564
       7764.5    0.00045851
         7765   0.000458456
       7765.5   0.000458402
         7766   0.000458347
       7766.5   0.000458293
         7767   0.000458239
       7767.5   0.000458185
         7768   0.000458131
       7768.5   0.000458077
         7769   0.000458023
       7769.5   0.000457968
         7770   0.000457914
       7770.5    0.00045786
         7771   0.000457806
       7771.5   0.000457752
         7772   0.000457698
       7772.5   0.000457644
         7773    0.00045759
       7773.5   0.000457536
         7774   0.000457482
       7774.5   0.000457428
         7775   0.000457374
       7775.5    0.00045732
         7776   0.000457266
       7776.5   0.000457212
         7777   0.000457158
       7777.5   0.000457104
         7778    0.00045705
       7778.5   0.000456996
         7779   0.000456942
       7779.5   0.000456888
         7780   0.000456834
       7780.5    0.00045678
         7781   0.000456727
       7781.5   0.000456673
         7782   0.000456619
       7782.5   0.000456565
         7783   0.000456511
       7783.5   0.000456457
         7784   0.000456403
       7784.5   0.000456349
         7785   0.000456296
       7785.5   0.000456242
         7786   0.000456188
       7786.5   0.000456134
         7787    0.00045608
       7787.5   0.000456027
         7788   0.000455973
       7788.5   0.000455919
         7789   0.000455865
       7789.5   0.000455812
         7790   0.000455758
       7790.5   0.000455704
         7791    0.00045565
       7791.5   0.000455597
         7792   0.000455543
       7792.5   0.000455489
         7793   0.000455436
       7793.5   0.000455382
         7794   0.000455328
       7794.5   0.000455275
         7795   0.000455221
       7795.5   0.000455167
         7796   0.000455114
       7796.5    0.00045506
         7797   0.000455006
       7797.5   0.000454953
         7798   0.000454899
       7798.5   0.000454846
         7799   0.000454792
       7799.5   0.000454738
         7800   0.000454685
       7800.5   0.000454631
         7801   0.000454578
       7801.5   0.000454524
         7802   0.000454471
       7802.5   0.000454417
         7803   0.000454364
       7803.5    0.00045431
         7804   0.000454257
       7804.5   0.000454203
         7805    0.00045415
       7805.5   0.000454096
         7806   0.000454043
       7806.5   0.000453989
         7807   0.000453936
       7807.5   0.000453882
         7808   0.000453829
       7808.5   0.000453775
         7809   0.000453722
       7809.5   0.000453669
         7810   0.000453615
       7810.5   0.000453562
         7811   0.000453509
       7811.5   0.000453455
         7812   0.000453402
       7812.5   0.000453348
         7813   0.000453295
       7813.5   0.000453242
         7814   0.000453188
       7814.5   0.000453135
         7815   0.000453082
       7815.5   0.000453029
         7816   0.000452975
       7816.5   0.000452922
         7817   0.000452869
       7817.5   0.000452815
         7818   0.000452762
       7818.5   0.000452709
         7819   0.000452656
       7819.5   0.000452602
         7820   0.000452549
       7820.5   0.000452496
         7821   0.000452443
       7821.5    0.00045239
         7822   0.000452336
       7822.5   0.000452283
         7823    0.00045223
       7823.5   0.000452177
         7824   0.000452124
       7824.5   0.000452071
         7825   0.000452018
       7825.5   0.000451964
         7826   0.000451911
       7826.5   0.000451858
         7827   0.000451805
       7827.5   0.000451752
         7828   0.000451699
       7828.5   0.000451646
         7829   0.000451593
       7829.5    0.00045154
         7830   0.000451487
       7830.5   0.000451434
         7831   0.000451381
       7831.5   0.000451328
         7832   0.000451275
       7832.5   0.000451222
         7833   0.000451169
       7833.5   0.000451116
         7834   0.000451063
       7834.5    0.00045101
         7835   0.000450957
       7835.5   0.000450904
         7836   0.000450851
       7836.5   0.000450798
         7837   0.000450745
       7837.5   0.000450692
         7838   0.000450639
       7838.5   0.000450586
         7839   0.000450533
       7839.5   0.000450481
         7840   0.000450428
       7840.5   0.000450375
         7841   0.000450322
       7841.5   0.000450269
         7842   0.000450216
       7842.5   0.000450163
         7843   0.000450111
       7843.5   0.000450058
         7844   0.000450005
       7844.5   0.000449952
         7845   0.000449899
       7845.5   0.000449847
         7846   0.000449794
       7846.5   0.000449741
         7847   0.000449688
       7847.5   0.000449636
         7848   0.000449583
       7848.5    0.00044953
         7849   0.000449477
       7849.5   0.000449425
         7850   0.000449372
       7850.5   0.000449319
         7851   0.000449267
       7851.5   0.000449214
         7852   0.000449161
       7852.5   0.000449109
         7853   0.000449056
       7853.5   0.000449003
         7854   0.000448951
       7854.5   0.000448898
         7855   0.000448845
       7855.5   0.000448793
         7856    0.00044874
       7856.5   0.000448688
         7857   0.000448635
       7857.5   0.000448583
         7858    0.00044853
       7858.5   0.000448477
         7859   0.000448425
       7859.5   0.000448372
         7860    0.00044832
       7860.5   0.000448267
         7861   0.000448215
       7861.5   0.000448162
         7862    0.00044811
       7862.5   0.000448057
         7863   0.000448005
       7863.5   0.000447952
         7864     0.0004479
       7864.5   0.000447847
         7865   0.000447795
       7865.5   0.000447743
         7866    0.00044769
       7866.5   0.000447638
         7867   0.000447585
       7867.5   0.000447533
         7868   0.000447481
       7868.5   0.000447428
         7869   0.000447376
       7869.5   0.000447323
         7870   0.000447271
       7870.5   0.000447219
         7871   0.000447166
       7871.5   0.000447114
         7872   0.000447062
       7872.5   0.000447009
         7873   0.000446957
       7873.5   0.000446905
         7874   0.000446853
       7874.5     0.0004468
         7875   0.000446748
       7875.5   0.000446696
         7876   0.000446643
       7876.5   0.000446591
         7877   0.000446539
       7877.5   0.000446487
         7878   0.000446435
       7878.5   0.000446382
         7879    0.00044633
       7879.5   0.000446278
         7880   0.000446226
       7880.5   0.000446174
         7881   0.000446121
       7881.5   0.000446069
         7882   0.000446017
       7882.5   0.000445965
         7883   0.000445913
       7883.5   0.000445861
         7884   0.000445809
       7884.5   0.000445756
         7885   0.000445704
       7885.5   0.000445652
         7886     0.0004456
       7886.5   0.000445548
         7887   0.000445496
       7887.5   0.000445444
         7888   0.000445392
       7888.5    0.00044534
         7889   0.000445288
       7889.5   0.000445236
         7890   0.000445184
       7890.5   0.000445132
         7891    0.00044508
       7891.5   0.000445028
         7892   0.000444976
       7892.5   0.000444924
         7893   0.000444872
       7893.5    0.00044482
         7894   0.000444768
       7894.5   0.000444716
         7895   0.000444664
       7895.5   0.000444612
         7896    0.00044456
       7896.5   0.000444508
         7897   0.000444456
       7897.5   0.000444405
         7898   0.000444353
       7898.5   0.000444301
         7899   0.000444249
       7899.5   0.000444197
         7900   0.000444145
       7900.5   0.000444093
         7901   0.000444042
       7901.5    0.00044399
         7902   0.000443938
       7902.5   0.000443886
         7903   0.000443834
       7903.5   0.000443782
         7904   0.000443731
       7904.5   0.000443679
         7905   0.000443627
       7905.5   0.000443575
         7906   0.000443524
       7906.5   0.000443472
         7907    0.00044342
       7907.5   0.000443368
         7908   0.000443317
       7908.5   0.000443265
         7909   0.000443213
       7909.5   0.000443162
         7910    0.00044311
       7910.5   0.000443058
         7911   0.000443007
       7911.5   0.000442955
         7912   0.000442903
       7912.5   0.000442852
         7913     0.0004428
       7913.5   0.000442748
         7914   0.000442697
       7914.5   0.000442645
         7915   0.000442594
       7915.5   0.000442542
         7916    0.00044249
       7916.5   0.000442439
         7917   0.000442387
       7917.5   0.000442336
         7918   0.000442284
       7918.5   0.000442233
         7919   0.000442181
       7919.5    0.00044213
         7920   0.000442078
       7920.5   0.000442027
         7921   0.000441975
       7921.5   0.000441924
         7922   0.000441872
       7922.5   0.000441821
         7923   0.000441769
       7923.5   0.000441718
         7924   0.000441666
       7924.5   0.000441615
         7925   0.000441564
       7925.5   0.000441512
         7926   0.000441461
       7926.5   0.000441409
         7927   0.000441358
       7927.5   0.000441306
         7928   0.000441255
       7928.5   0.000441204
         7929   0.000441152
       7929.5   0.000441101
         7930    0.00044105
       7930.5   0.000440998
         7931   0.000440947
       7931.5   0.000440896
         7932   0.000440844
       7932.5   0.000440793
         7933   0.000440742
       7933.5    0.00044069
         7934   0.000440639
       7934.5   0.000440588
         7935   0.000440537
       7935.5   0.000440485
         7936   0.000440434
       7936.5   0.000440383
         7937   0.000440332
       7937.5   0.000440281
         7938   0.000440229
       7938.5   0.000440178
         7939   0.000440127
       7939.5   0.000440076
         7940   0.000440025
       7940.5   0.000439973
         7941   0.000439922
       7941.5   0.000439871
         7942    0.00043982
       7942.5   0.000439769
         7943   0.000439718
       7943.5   0.000439667
         7944   0.000439615
       7944.5   0.000439564
         7945   0.000439513
       7945.5   0.000439462
         7946   0.000439411
       7946.5    0.00043936
         7947   0.000439309
       7947.5   0.000439258
         7948   0.000439207
       7948.5   0.000439156
         7949   0.000439105
       7949.5   0.000439054
         7950   0.000439003
       7950.5   0.000438952
         7951   0.000438901
       7951.5    0.00043885
         7952   0.000438799
       7952.5   0.000438748
         7953   0.000438697
       7953.5   0.000438646
         7954   0.000438595
       7954.5   0.000438544
         7955   0.000438493
       7955.5   0.000438442
         7956   0.000438391
       7956.5    0.00043834
         7957   0.000438289
       7957.5   0.000438239
         7958   0.000438188
       7958.5   0.000438137
         7959   0.000438086
       7959.5   0.000438035
         7960   0.000437984
       7960.5   0.000437933
         7961   0.000437883
       7961.5   0.000437832
         7962   0.000437781
       7962.5    0.00043773
         7963   0.000437679
       7963.5   0.000437628
         7964   0.000437578
       7964.5   0.000437527
         7965   0.000437476
       7965.5   0.000437425
         7966   0.000437375
       7966.5   0.000437324
         7967   0.000437273
       7967.5   0.000437222
         7968   0.000437172
       7968.5   0.000437121
         7969    0.00043707
       7969.5    0.00043702
         7970   0.000436969
       7970.5   0.000436918
         7971   0.000436868
       7971.5   0.000436817
         7972   0.000436766
       7972.5   0.000436716
         7973   0.000436665
       7973.5   0.000436614
         7974   0.000436564
       7974.5   0.000436513
         7975   0.000436463
       7975.5   0.000436412
         7976   0.000436361
       7976.5   0.000436311
         7977    0.00043626
       7977.5    0.00043621
         7978   0.000436159
       7978.5   0.000436109
         7979   0.000436058
       7979.5   0.000436008
         7980   0.000435957
       7980.5   0.000435907
         7981   0.000435856
       7981.5   0.000435806
         7982   0.000435755
       7982.5   0.000435705
         7983   0.000435654
       7983.5   0.000435604
         7984   0.000435553
       7984.5   0.000435503
         7985   0.000435452
       7985.5   0.000435402
         7986   0.000435351
       7986.5   0.000435301
         7987   0.000435251
       7987.5     0.0004352
         7988    0.00043515
       7988.5   0.000435099
         7989   0.000435049
       7989.5   0.000434999
         7990   0.000434948
       7990.5   0.000434898
         7991   0.000434848
       7991.5   0.000434797
         7992   0.000434747
       7992.5   0.000434697
         7993   0.000434646
       7993.5   0.000434596
         7994   0.000434546
       7994.5   0.000434496
         7995   0.000434445
       7995.5   0.000434395
         7996   0.000434345
       7996.5   0.000434295
         7997   0.000434244
       7997.5   0.000434194
         7998   0.000434144
       7998.5   0.000434094
         7999   0.000434043
       7999.5   0.000433993
         8000   0.000433943
       8000.5   0.000433893
         8001   0.000433843
       8001.5   0.000433792
         8002   0.000433742
       8002.5   0.000433692
         8003   0.000433642
       8003.5   0.000433592
         8004   0.000433542
       8004.5   0.000433492
         8005   0.000433442
       8005.5   0.000433391
         8006   0.000433341
       8006.5   0.000433291
         8007   0.000433241
       8007.5   0.000433191
         8008   0.000433141
       8008.5   0.000433091
         8009   0.000433041
       8009.5   0.000432991
         8010   0.000432941
       8010.5   0.000432891
         8011   0.000432841
       8011.5   0.000432791
         8012   0.000432741
       8012.5   0.000432691
         8013   0.000432641
       8013.5   0.000432591
         8014   0.000432541
       8014.5   0.000432491
         8015   0.000432441
       8015.5   0.000432391
         8016   0.000432341
       8016.5   0.000432291
         8017   0.000432241
       8017.5   0.000432191
         8018   0.000432141
       8018.5   0.000432092
         8019   0.000432042
       8019.5   0.000431992
         8020   0.000431942
       8020.5   0.000431892
         8021   0.000431842
       8021.5   0.000431792
         8022   0.000431743
       8022.5   0.000431693
         8023   0.000431643
       8023.5   0.000431593
         8024   0.000431543
       8024.5   0.000431493
         8025   0.000431444
       8025.5   0.000431394
         8026   0.000431344
       8026.5   0.000431294
         8027   0.000431245
       8027.5   0.000431195
         8028   0.000431145
       8028.5   0.000431095
         8029   0.000431046
       8029.5   0.000430996
         8030   0.000430946
       8030.5   0.000430897
         8031   0.000430847
       8031.5   0.000430797
         8032   0.000430747
       8032.5   0.000430698
         8033   0.000430648
       8033.5   0.000430599
         8034   0.000430549