# Probe 0 (0.05 0.05 0.005)
#       Probe             0
#        Time
       7500.5    0.00048841
         7501   0.000488351
       7501.5   0.000488292
         7502   0.000488232
       7502.5   0.000488173
         7503   0.000488114
       7503.5   0.000488055
         7504   0.000487996
       7504.5   0.000487937
         7505   0.000487878
       7505.5   0.000487819
         7506    0.00048776
       7506.5   0.000487701
         7507   0.000487642
       7507.5   0.000487583
         7508   0.000487524
       7508.5   0.000487465
         7509   0.000487406
       7509.5   0.000487347
         7510   0.000487288
       7510.5   0.000487229
         7511    0.00048717
       7511.5   0.000487112
         7512   0.000487053
       7512.5   0.000486994
         7513   0.000486935
       7513.5   0.000486876
         7514   0.000486817
       7514.5   0.000486758
         7515   0.000486699
       7515.5   0.000486641
         7516   0.000486582
       7516.5   0.000486523
         7517   0.000486464
       7517.5   0.000486405
         7518   0.000486347
       7518.5   0.000486288
         7519   0.000486229
       7519.5    0.00048617
         7520   0.000486112
       7520.5   0.000486053
         7521   0.000485994
       7521.5   0.000485935
         7522   0.000485877
       7522.5   0.000485818
         7523   0.000485759
       7523.5   0.000485701
         7524   0.000485642
       7524.5   0.000485583
         7525   0.000485525
       7525.5   0.000485466
         7526   0.000485407
       7526.5   0.000485349
         7527    0.00048529
       7527.5   0.000485232
         7528   0.000485173
       7528.5   0.000485114
         7529   0.000485056
       7529.5   0.000484997
         7530   0.000484939
       7530.5    0.00048488
         7531   0.000484822
       7531.5   0.000484763
         7532   0.000484705
       7532.5   0.000484646
         7533   0.000484588
       7533.5   0.000484529
         7534   0.000484471
       7534.5   0.000484412
         7535   0.000484354
       7535.5   0.000484295
         7536   0.000484237
       7536.5   0.000484179
         7537    0.00048412
       7537.5   0.000484062
         7538   0.000484003
       7538.5   0.000483945
         7539   0.000483887
       7539.5   0.000483828
         7540    0.00048377
       7540.5   0.000483712
         7541   0.000483653
       7541.5   0.000483595
         7542   0.000483537
       7542.5   0.000483478
         7543    0.00048342
       7543.5   0.000483362
         7544   0.000483303
       7544.5   0.000483245
         7545   0.000483187
       7545.5   0.000483129
         7546    0.00048307
       7546.5   0.000483012
         7547   0.000482954
       7547.5   0.000482896
         7548   0.000482838
       7548.5   0.000482779
         7549   0.000482721
       7549.5   0.000482663
         7550   0.000482605
       7550.5   0.000482547
         7551   0.000482489
       7551.5    0.00048243
         7552   0.000482372
       7552.5   0.000482314
         7553   0.000482256
       7553.5   0.000482198
         7554    0.00048214
       7554.5   0.000482082
         7555   0.000482024
       7555.5   0.000481966
         7556   0.000481908
       7556.5    0.00048185
         7557   0.000481792
       7557.5   0.000481734
         7558   0.000481676
       7558.5   0.000481618
         7559    0.00048156
       7559.5   0.000481502
         7560   0.000481444
       7560.5   0.000481386
         7561   0.000481328
       7561.5    0.00048127
         7562   0.000481212
       7562.5   0.000481154
         7563   0.000481096
       7563.5   0.000481038
         7564    0.00048098
       7564.5   0.000480922
         7565   0.000480864
       7565.5   0.000480807
         7566   0.000480749
       7566.5   0.000480691
         7567   0.000480633
       7567.5   0.000480575
         7568   0.000480517
       7568.5    0.00048046
         7569   0.000480402
       7569.5   0.000480344
         7570   0.000480286
       7570.5   0.000480228
         7571   0.000480171
       7571.5   0.000480113
         7572   0.000480055
       7572.5   0.000479998
         7573    0.00047994
       7573.5   0.000479882
         7574   0.000479824
       7574.5   0.000479767
         7575   0.000479709
       7575.5   0.000479651
         7576   0.000479594
       7576.5   0.000479536
         7577   0.000479478
       7577.5   0.000479421
         7578   0.000479363
       7578.5   0.000479306
         7579   0.000479248
       7579.5    0.00047919
         7580   0.000479133
       7580.5   0.000479075
         7581   0.000479018
       7581.5    0.00047896
         7582   0.000478902
       7582.5   0.000478845
         7583   0.000478787
       7583.5    0.00047873
         7584   0.000478672
       7584.5   0.000478615
         7585   0.000478557
       7585.5     0.0004785
         7586   0.000478442
       7586.5   0.000478385
         7587   0.000478328
       7587.5    0.00047827
         7588   0.000478213
       7588.5   0.000478155
         7589   0.000478098
       7589.5    0.00047804
         7590   0.000477983
       7590.5   0.000477926
         7591   0.000477868
       7591.5   0.000477811
         7592   0.000477754
       7592.5   0.000477696
         7593   0.000477639
       7593.5   0.000477581
         7594   0.000477524
       7594.5   0.000477467
         7595    0.00047741
       7595.5   0.000477352
         7596   0.000477295
       7596.5   0.000477238
         7597    0.00047718
       7597.5   0.000477123
         7598   0.000477066
       7598.5   0.000477009
         7599   0.000476951
       7599.5   0.000476894
         7600   0.000476837
       7600.5    0.00047678
         7601   0.000476723
       7601.5   0.000476665
         7602   0.000476608
       7602.5   0.000476551
         7603   0.000476494
       7603.5   0.000476437
         7604    0.00047638
       7604.5   0.000476323
         7605   0.000476266
       7605.5   0.000476208
         7606   0.000476151
       7606.5   0.000476094
         7607   0.000476037
       7607.5    0.00047598
         7608   0.000475923
       7608.5   0.000475866
         7609   0.000475809
       7609.5   0.000475752
         7610   0.000475695
       7610.5   0.000475638
         7611   0.000475581
       7611.5   0.000475524
         7612   0.000475467
       7612.5    0.00047541
         7613   0.000475353
       7613.5   0.000475296
         7614   0.000475239
       7614.5   0.000475182
         7615   0.000475125
       7615.5   0.000475068
         7616   0.000475011
       7616.5   0.000474955
         7617   0.000474898
       7617.5   0.000474841
         7618   0.000474784
       7618.5   0.000474727
         7619    0.00047467
       7619.5   0.000474613
         7620   0.000474557
       7620.5     0.0004745
         7621   0.000474443
       7621.5   0.000474386
         7622   0.000474329
       7622.5   0.000474272
         7623   0.000474216
       7623.5   0.000474159
         7624   0.000474102
       7624.5   0.000474045
         7625   0.000473989
       7625.5   0.000473932
         7626   0.000473875
       7626.5   0.000473819
         7627   0.000473762
       7627.5   0.000473705
         7628   0.000473648
       7628.5   0.000473592
         7629   0.000473535
       7629.5   0.000473479
         7630   0.000473422
       7630.5   0.000473365
         7631   0.000473309
       7631.5   0.000473252
         7632   0.000473195
       7632.5   0.000473139
         7633   0.000473082
       7633.5   0.000473026
         7634   0.000472969
       7634.5   0.000472912
         7635   0.000472856
       7635.5   0.000472799
         7636   0.000472743
       7636.5   0.000472686
         7637    0.00047263
       7637.5   0.000472573
         7638   0.000472517
       7638.5    0.00047246
         7639   0.000472404
       7639.5   0.000472347
         7640   0.000472291
       7640.5   0.000472235
         7641   0.000472178
       7641.5   0.000472122
         7642   0.000472065
       7642.5   0.000472009
         7643   0.000471952
       7643.5   0.000471896
         7644    0.00047184
       7644.5   0.000471783
         7645   0.000471727
       7645.5   0.000471671
         7646   0.000471614
       7646.5   0.000471558
         7647   0.000471502
       7647.5   0.000471445
         7648   0.000471389
       7648.5   0.000471333
         7649   0.000471276
       7649.5    0.00047122
         7650   0.000471164
       7650.5   0.000471108
         7651   0.000471051
       7651.5   0.000470995
         7652   0.000470939
       7652.5   0.000470883
         7653   0.000470826
       7653.5    0.00047077
         7654   0.000470714
       7654.5   0.000470658
         7655   0.000470602
       7655.5   0.000470545
         7656   0.000470489
       7656.5   0.000470433
         7657   0.000470377
       7657.5   0.000470321
         7658   0.000470265
       7658.5   0.000470209
         7659   0.000470152
       7659.5   0.000470096
         7660    0.00047004
       7660.5   0.000469984
         7661   0.000469928
       7661.5   0.000469872
         7662   0.000469816
       7662.5    0.00046976
         7663   0.000469704
       7663.5   0.000469648
         7664   0.000469592
       7664.5   0.000469536
         7665    0.00046948
       7665.5   0.000469424
         7666   0.000469368
       7666.5   0.000469312
         7667   0.000469256
       7667.5     0.0004692
         7668   0.000469144
       7668.5   0.000469088
         7669   0.000469032
       7669.5   0.000468976
         7670   0.000468921
       7670.5   0.000468865
         7671   0.000468809
       7671.5   0.000468753
         7672   0.000468697
       7672.5   0.000468641
         7673   0.000468585
       7673.5   0.000468529
         7674   0.000468474
       7674.5   0.000468418
         7675   0.000468362
       7675.5   0.000468306
         7676    0.00046825
       7676.5   0.000468195
         7677   0.000468139
       7677.5   0.000468083
         7678   0.000468027
       7678.5   0.000467972
         7679   0.000467916
       7679.5    0.00046786
         7680   0.000467804
       7680.5   0.000467749
         7681   0.000467693
       7681.5   0.000467637
         7682   0.000467582
       7682.5   0.000467526
         7683    0.00046747
       7683.5   0.000467415
         7684   0.000467359
       7684.5   0.000467303
         7685   0.000467248
       7685.5   0.000467192
         7686   0.000467137
       7686.5   0.000467081
         7687   0.000467025
       7687.5    0.00046697
         7688   0.000466914
       7688.5   0.000466859
         7689   0.000466803
       7689.5   0.000466748
         7690   0.000466692
       7690.5   0.000466636
         7691   0.000466581
       7691.5   0.000466525
         7692    0.00046647
       7692.5   0.000466414
         7693   0.000466359
       7693.5   0.000466303
         7694   0.000466248
       7694.5   0.000466193
         7695   0.000466137
       7695.5   0.000466082
         7696   0.000466026
       7696.5   0.000465971
         7697   0.000465915
       7697.5    0.00046586
         7698   0.000465805
       7698.5   0.000465749
         7699   0.000465694
       7699.5   0.000465639
         7700   0.000465583
       7700.5   0.000465528
         7701   0.000465473
       7701.5   0.000465417
         7702   0.000465362
       7702.5   0.000465307
         7703   0.000465251
       7703.5   0.000465196
         7704   0.000465141
       7704.5   0.000465085
         7705    0.00046503
       7705.5   0.000464975
         7706    0.00046492
       7706.5   0.000464864
         7707   0.000464809
       7707.5   0.000464754
         7708   0.000464699
       7708.5   0.000464644
         7709   0.000464588
       7709.5   0.000464533
         7710   0.000464478
       7710.5   0.000464423
         7711   0.000464368
       7711.5   0.000464313
         7712   0.000464257
       7712.5   0.000464202
         7713   0.000464147
       7713.5   0.000464092
         7714   0.000464037
       7714.5   0.000463982
         7715   0.000463927
       7715.5   0.000463872
         7716   0.000463817
       7716.5   0.000463762
         7717   0.000463707
       7717.5   0.000463652
         7718   0.000463597
       7718.5   0.000463542
         7719   0.000463487
       7719.5   0.000463432
         7720   0.000463377
       7720.5   0.000463322
         7721   0.000463267
       7721.5   0.000463212
         7722   0.000463157
       7722.5   0.000463102
         7723   0.000463047
       7723.5   0.000462992
         7724   0.000462937
       7724.5   0.000462882
         7725   0.000462827
       7725.5   0.000462772
         7726   0.000462717
       7726.5   0.000462662
         7727   0.000462608
       7727.5   0.000462553
         7728   0.000462498
       7728.5   0.000462443
         7729   0.000462388
       7729.5   0.000462333
         7730   0.000462279
       7730.5   0.000462224
         7731   0.000462169
       7731.5   0.000462114
         7732   0.000462059
       7732.5   0.000462005
         7733    0.00046195
       7733.5   0.000461895
         7734    0.00046184
       7734.5   0.000461786
         7735   0.000461731
       7735.5   0.000461676
         7736   0.000461622
       7736.5   0.000461567
         7737   0.000461512
       7737.5   0.000461458
         7738   0.000461403
       7738.5   0.000461348
         7739   0.000461294
       7739.5   0.000461239
         7740   0.000461184
       7740.5    0.00046113
         7741   0.000461075
       7741.5    0.00046102
         7742   0.000460966
       7742.5   0.000460911
         7743   0.000460857
       7743.5   0.000460802
         7744   0.000460748
       7744.5   0.000460693
         7745   0.000460638
       7745.5   0.000460584
         7746   0.000460529
       7746.5   0.000460475
         7747    0.00046042
       7747.5   0.000460366
         7748   0.000460311
       7748.5   0.000460257
         7749   0.000460202
       7749.5   0.000460148
         7750   0.000460094
       7750.5   0.000460039
         7751   0.000459985
       7751.5    0.00045993
         7752   0.000459876
       7752.5   0.000459821
         7753   0.000459767
       7753.5   0.000459713
         7754   0.000459658
       7754.5   0.000459604
         7755    0.00045955
       7755.5   0.000459495
         7756   0.000459441
       7756.5   0.000459387
         7757   0.000459332
       7757.5   0.000459278
         7758   0.000459224
       7758.5   0.000459169
         7759   0.000459115
       7759.5   0.000459061
         7760   0.000459006
       7760.5   0.000458952
         7761   0.000458898
       7761.5   0.000458844
         7762   0.000458789
       7762.5   0.000458735
         7763   0.000458681
       7763.5   0.000458627
         7764   0.000458573
       7764.5   0.000458518
         7765   0.000458464
       7765.5    0.00045841
         7766   0.000458356
       7766.5   0.000458302
         7767   0.000458248
       7767.5   0.000458193
         7768   0.000458139
       7768.5   0.000458085
         7769   0.000458031
       7769.5   0.000457977
         7770   0.000457923
       7770.5   0.000457869
         7771   0.000457815
       7771.5   0.000457761
         7772   0.000457707
       7772.5   0.000457652
         7773   0.000457598
       7773.5   0.000457544
         7774    0.00045749
       7774.5   0.000457436
         7775   0.000457382
       7775.5   0.000457328
         7776   0.000457274
       7776.5    0.00045722
         7777   0.000457166
       7777.5   0.000457112
         7778   0.000457058
       7778.5   0.000457005
         7779   0.000456951
       7779.5   0.000456897
         7780   0.000456843
       7780.5   0.000456789
         7781   0.000456735
       7781.5   0.000456681
         7782   0.000456627
       7782.5   0.000456573
         7783   0.000456519
       7783.5   0.000456466
         7784   0.000456412
       7784.5   0.000456358
         7785   0.000456304
       7785.5    0.00045625
         7786   0.000456196
       7786.5   0.000456143
         7787   0.000456089
       7787.5   0.000456035
         7788   0.000455981
       7788.5   0.000455927
         7789   0.000455874
       7789.5    0.00045582
         7790   0.000455766
       7790.5   0.000455712
         7791   0.000455659
       7791.5   0.000455605
         7792   0.000455551
       7792.5   0.000455498
         7793   0.000455444
       7793.5    0.00045539
         7794   0.000455337
       7794.5   0.000455283
         7795   0.000455229
       7795.5   0.000455176
         7796   0.000455122
       7796.5   0.000455068
         7797   0.000455015
       7797.5   0.000454961
         7798   0.000454908
       7798.5   0.000454854
         7799     0.0004548
       7799.5   0.000454747
         7800   0.000454693
       7800.5    0.00045464
         7801   0.000454586
       7801.5   0.000454533
         7802   0.000454479
       7802.5   0.000454426
         7803   0.000454372
       7803.5   0.000454318
         7804   0.000454265
       7804.5   0.000454211
         7805   0.000454158
       7805.5   0.000454105
         7806   0.000454051
       7806.5   0.000453998
         7807   0.000453944
       7807.5   0.000453891
         7808   0.000453837
       7808.5   0.000453784
         7809    0.00045373
       7809.5   0.000453677
         7810   0.000453624
       7810.5    0.00045357
         7811   0.000453517
       7811.5   0.000453464
         7812    0.00045341
       7812.5   0.000453357
         7813   0.000453304
       7813.5    0.00045325
         7814   0.000453197
       7814.5   0.000453144
         7815    0.00045309
       7815.5   0.000453037
         7816   0.000452984
       7816.5    0.00045293
         7817   0.000452877
       7817.5   0.000452824
         7818   0.000452771
       7818.5   0.000452717
         7819   0.000452664
       7819.5   0.000452611
         7820   0.000452558
       7820.5   0.000452504
         7821   0.000452451
       7821.5   0.000452398
         7822   0.000452345
       7822.5   0.000452292
         7823   0.000452239
       7823.5   0.000452185
         7824   0.000452132
       7824.5   0.000452079
         7825   0.000452026
       7825.5   0.000451973
         7826    0.00045192
       7826.5   0.000451867
         7827   0.000451814
       7827.5    0.00045176
         7828   0.000451707
       7828.5   0.000451654
         7829   0.000451601
       7829.5   0.000451548
         7830   0.000451495
       7830.5   0.000451442
         7831   0.000451389
       7831.5   0.000451336
         7832   0.000451283
       7832.5    0.00045123
         7833   0.000451177
       7833.5   0.000451124
         7834   0.000451071
       7834.5   0.000451018
         7835   0.000450965
       7835.5   0.000450912
         7836   0.000450859
       7836.5   0.000450806
         7837   0.000450753
       7837.5   0.000450701
         7838   0.000450648
       7838.5   0.000450595
         7839   0.000450542
       7839.5   0.000450489
         7840   0.000450436
       7840.5   0.000450383
         7841    0.00045033
       7841.5   0.000450277
         7842   0.000450225
       7842.5   0.000450172
         7843   0.000450119
       7843.5   0.000450066
         7844   0.000450013
       7844.5   0.000449961
         7845   0.000449908
       7845.5   0.000449855
         7846   0.000449802
       7846.5    0.00044975
         7847   0.000449697
       7847.5   0.000449644
         7848   0.000449591
       7848.5   0.000449539
         7849   0.000449486
       7849.5   0.000449433
         7850    0.00044938
       7850.5   0.000449328
         7851   0.000449275
       7851.5   0.000449222
         7852    0.00044917
       7852.5   0.000449117
         7853   0.000449064
       7853.5   0.000449012
         7854   0.000448959
       7854.5   0.000448907
         7855   0.000448854
       7855.5   0.000448801
         7856   0.000448749
       7856.5   0.000448696
         7857   0.000448644
       7857.5   0.000448591
         7858   0.000448538
       7858.5   0.000448486
         7859   0.000448433
       7859.5   0.000448381
         7860   0.000448328
       7860.5   0.000448276
         7861   0.000448223
       7861.5   0.000448171
         7862   0.000448118
       7862.5   0.000448066
         7863   0.000448013
       7863.5   0.000447961
         7864   0.000447908
       7864.5   0.000447856
         7865   0.000447803
       7865.5   0.000447751
         7866   0.000447699
       7866.5   0.000447646
         7867   0.000447594
       7867.5   0.000447541
         7868   0.000447489
       7868.5   0.000447437
         7869   0.000447384
       7869.5   0.000447332
         7870   0.000447279
       7870.5   0.000447227
         7871   0.000447175
       7871.5   0.000447122
         7872    0.00044707
       7872.5   0.000447018
         7873   0.000446966
       7873.5   0.000446913
         7874   0.000446861
       7874.5   0.000446809
         7875   0.000446756
       7875.5   0.000446704
         7876   0.000446652
       7876.5     0.0004466
         7877   0.000446547
       7877.5   0.000446495
         7878   0.000446443
       7878.5   0.000446391
         7879   0.000446339
       7879.5   0.000446286
         7880   0.000446234
       7880.5   0.000446182
         7881    0.00044613
       7881.5   0.000446078
         7882   0.000446025
       7882.5   0.000445973
         7883   0.000445921
       7883.5   0.000445869
         7884   0.000445817
       7884.5   0.000445765
         7885   0.000445713
       7885.5   0.000445661
         7886   0.000445609
       7886.5   0.000445556
         7887   0.000445504
       7887.5   0.000445452
         7888     0.0004454
       7888.5   0.000445348
         7889   0.000445296
       7889.5   0.000445244
         7890   0.000445192
       7890.5    0.00044514
         7891   0.000445088
       7891.5   0.000445036
         7892   0.000444984
       7892.5   0.000444932
         7893    0.00044488
       7893.5   0.000444828
         7894   0.000444776
       7894.5   0.000444724
         7895   0.000444672
       7895.5   0.000444621
         7896   0.000444569
       7896.5   0.000444517
         7897   0.000444465
       7897.5   0.000444413
         7898   0.000444361
       7898.5   0.000444309
         7899   0.000444257
       7899.5   0.000444205
         7900   0.000444154
       7900.5   0.000444102
         7901    0.00044405
       7901.5   0.000443998
         7902   0.000443946
       7902.5   0.000443894
         7903   0.000443843
       7903.5   0.000443791
         7904   0.000443739
       7904.5   0.000443687
         7905   0.000443636
       7905.5   0.000443584
         7906   0.000443532
       7906.5    0.00044348
         7907   0.000443429
       7907.5   0.000443377
         7908   0.000443325
       7908.5   0.000443273
         7909   0.000443222
       7909.5    0.00044317
         7910   0.000443118
       7910.5   0.000443067
         7911   0.000443015
       7911.5   0.000442963
         7912   0.000442912
       7912.5    0.00044286
         7913   0.000442809
       7913.5   0.000442757
         7914   0.000442705
       7914.5   0.000442654
         7915   0.000442602
       7915.5    0.00044255
         7916   0.000442499
       7916.5   0.000442447
         7917   0.000442396
       7917.5   0.000442344
         7918   0.000442293
       7918.5   0.000442241
         7919    0.00044219
       7919.5   0.000442138
         7920   0.000442087
       7920.5   0.000442035
         7921   0.000441984
       7921.5   0.000441932
         7922   0.000441881
       7922.5   0.000441829
         7923   0.000441778
       7923.5   0.000441726
         7924   0.000441675
       7924.5   0.000441623
         7925   0.000441572
       7925.5   0.000441521
         7926   0.000441469
       7926.5   0.000441418
         7927   0.000441366
       7927.5   0.000441315
         7928   0.000441264
       7928.5   0.000441212
         7929   0.000441161
       7929.5   0.000441109
         7930   0.000441058
       7930.5   0.000441007
         7931   0.000440955
       7931.5   0.000440904
         7932   0.000440853
       7932.5   0.000440801
         7933    0.00044075
       7933.5   0.000440699
         7934   0.000440648
       7934.5   0.000440596
         7935   0.000440545
       7935.5   0.000440494
         7936   0.000440443
       7936.5   0.000440391
         7937    0.00044034
       7937.5   0.000440289
         7938   0.000440238
       7938.5   0.000440187
         7939   0.000440135
       7939.5   0.000440084
         7940   0.000440033
       7940.5   0.000439982
         7941   0.000439931
       7941.5   0.000439879
         7942   0.000439828
       7942.5   0.000439777
         7943   0.000439726
       7943.5   0.000439675
         7944   0.000439624
       7944.5   0.000439573
         7945   0.000439522
       7945.5   0.000439471
         7946   0.000439419
       7946.5   0.000439368
         7947   0.000439317
       7947.5   0.000439266
         7948   0.000439215
       7948.5   0.000439164
         7949   0.000439113
       7949.5   0.000439062
         7950   0.000439011
       7950.5    0.00043896
         7951   0.000438909
       7951.5   0.000438858
         7952   0.000438807
       7952.5   0.000438756
         7953   0.000438705
       7953.5   0.000438654
         7954   0.000438603
       7954.5   0.000438552
         7955   0.000438501
       7955.5   0.000438451
         7956     0.0004384
       7956.5   0.000438349
         7957   0.000438298
       7957.5   0.000438247
         7958   0.000438196
       7958.5   0.000438145
         7959   0.000438094
       7959.5   0.000438043
         7960   0.000437993
       7960.5   0.000437942
         7961   0.000437891
       7961.5    0.00043784
         7962   0.000437789
       7962.5   0.000437738
         7963   0.000437688
       7963.5   0.000437637
         7964   0.000437586
       7964.5   0.000437535
         7965   0.000437485
       7965.5   0.000437434
         7966   0.000437383
       7966.5   0.000437332
         7967   0.000437282
       7967.5   0.000437231
         7968    0.00043718
       7968.5   0.000437129
         7969   0.000437079
       7969.5   0.000437028
         7970   0.000436977
       7970.5   0.000436927
         7971   0.000436876
       7971.5   0.000436825
         7972   0.000436775
       7972.5   0.000436724
         7973   0.000436673
       7973.5   0.000436623
         7974   0.000436572
       7974.5   0.000436522
         7975   0.000436471
       7975.5    0.00043642
         7976    0.00043637
       7976.5   0.000436319
         7977   0.000436269
       7977.5   0.000436218
         7978   0.000436168
       7978.5   0.000436117
         7979   0.000436067
       7979.5   0.000436016
         7980   0.000435965
       7980.5   0.000435915
         7981   0.000435864
       7981.5   0.000435814
         7982   0.000435763
       7982.5   0.000435713
         7983   0.000435663
       7983.5   0.000435612
         7984   0.000435562
       7984.5   0.000435511
         7985   0.000435461
       7985.5    0.00043541
         7986    0.00043536
       7986.5   0.000435309
         7987   0.000435259
       7987.5   0.000435209
         7988   0.000435158
       7988.5   0.000435108
         7989   0.000435058
       7989.5   0.000435007
         7990   0.000434957
       7990.5   0.000434906
         7991   0.000434856
       7991.5   0.000434806
         7992   0.000434755
       7992.5   0.000434705
         7993   0.000434655
       7993.5   0.000434605
         7994   0.000434554
       7994.5   0.000434504
         7995   0.000434454
       7995.5   0.000434403
         7996   0.000434353
       7996.5   0.000434303
         7997   0.000434253
       7997.5   0.000434202
         7998   0.000434152
       7998.5   0.000434102
         7999   0.000434052
       7999.5   0.000434002
         8000   0.000433951
       8000.5   0.000433901
         8001   0.000433851
       8001.5   0.000433801
         8002   0.000433751
       8002.5   0.000433701
         8003    0.00043365
       8003.5     0.0004336
         8004    0.00043355
       8004.5     0.0004335
         8005    0.00043345
       8005.5     0.0004334
         8006    0.00043335
       8006.5     0.0004333
         8007    0.00043325
       8007.5   0.000433199
         8008   0.000433149
       8008.5   0.000433099
         8009   0.000433049
       8009.5   0.000432999
         8010   0.000432949
       8010.5   0.000432899
         8011   0.000432849
       8011.5   0.000432799
         8012   0.000432749
       8012.5   0.000432699
         8013   0.000432649
       8013.5   0.000432599
         8014   0.000432549
       8014.5   0.000432499
         8015   0.000432449
       8015.5   0.000432399
         8016    0.00043235
       8016.5     0.0004323
         8017    0.00043225
       8017.5     0.0004322
         8018    0.00043215
       8018.5     0.0004321
         8019    0.00043205
       8019.5      0.000432
         8020    0.00043195
       8020.5     0.0004319
         8021   0.000431851
       8021.5   0.000431801
         8022   0.000431751
       8022.5   0.000431701
         8023   0.000431651
       8023.5   0.000431601
         8024   0.000431552
       8024.5   0.000431502
         8025   0.000431452
       8025.5   0.000431402
         8026   0.000431353
       8026.5   0.000431303
         8027   0.000431253
       8027.5   0.000431203
         8028   0.000431154
       8028.5   0.000431104
         8029   0.000431054
       8029.5   0.000431004
         8030   0.000430955
       8030.5   0.000430905
         8031   0.000430855
       8031.5   0.000430806
         8032   0.000430756
       8032.5   0.000430706
         8033   0.000430657
       8033.5   0.000430607
         8034   0.000430557