# Probe 0 (0.05 0.05 0.005)
#       Probe             0
#        Time
       7500.5   0.000488392
         7501   0.000488333
       7501.5   0.000488274
         7502   0.000488215
       7502.5   0.000488156
         7503   0.000488097
       7503.5   0.000488038
         7504   0.000487979
       7504.5    0.00048792
         7505   0.000487861
       7505.5   0.000487802
         7506   0.000487743
       7506.5   0.000487684
         7507   0.000487625
       7507.5   0.000487566
         7508   0.000487507
       7508.5   0.000487448
         7509   0.000487389
       7509.5    0.00048733
         7510   0.000487271
       7510.5   0.000487212
         7511   0.000487153
       7511.5   0.000487094
         7512   0.000487035
       7512.5   0.000486976
         7513   0.000486918
       7513.5   0.000486859
         7514     0.0004868
       7514.5   0.000486741
         7515   0.000486682
       7515.5   0.000486623
         7516   0.000486564
       7516.5   0.000486506
         7517   0.000486447
       7517.5   0.000486388
         7518   0.000486329
       7518.5   0.000486271
         7519   0.000486212
       7519.5   0.000486153
         7520   0.000486094
       7520.5   0.000486036
         7521   0.000485977
       7521.5   0.000485918
         7522   0.000485859
       7522.5   0.000485801
         7523   0.000485742
       7523.5   0.000485683
         7524   0.000485625
       7524.5   0.000485566
         7525   0.000485507
       7525.5   0.000485449
         7526    0.00048539
       7526.5   0.000485331
         7527   0.000485273
       7527.5   0.000485214
         7528   0.000485156
       7528.5   0.000485097
         7529   0.000485039
       7529.5    0.00048498
         7530   0.000484921
       7530.5   0.000484863
         7531   0.000484804
       7531.5   0.000484746
         7532   0.000484687
       7532.5   0.000484629
         7533    0.00048457
       7533.5   0.000484512
         7534   0.000484453
       7534.5   0.000484395
         7535   0.000484337
       7535.5   0.000484278
         7536    0.00048422
       7536.5   0.000484161
         7537   0.000484103
       7537.5   0.000484044
         7538   0.000483986
       7538.5   0.000483928
         7539   0.000483869
       7539.5   0.000483811
         7540   0.000483753
       7540.5   0.000483694
         7541   0.000483636
       7541.5   0.000483578
         7542   0.000483519
       7542.5   0.000483461
         7543   0.000483403
       7543.5   0.000483344
         7544   0.000483286
       7544.5   0.000483228
         7545    0.00048317
       7545.5   0.000483111
         7546   0.000483053
       7546.5   0.000482995
         7547   0.000482937
       7547.5   0.000482878
         7548    0.00048282
       7548.5   0.000482762
         7549   0.000482704
       7549.5   0.000482646
         7550   0.000482587
       7550.5   0.000482529
         7551   0.000482471
       7551.5   0.000482413
         7552   0.000482355
       7552.5   0.000482297
         7553   0.000482239
       7553.5   0.000482181
         7554   0.000482123
       7554.5   0.000482064
         7555   0.000482006
       7555.5   0.000481948
         7556    0.00048189
       7556.5   0.000481832
         7557   0.000481774
       7557.5   0.000481716
         7558   0.000481658
       7558.5     0.0004816
         7559   0.000481542
       7559.5   0.000481484
         7560   0.000481426
       7560.5   0.000481368
         7561    0.00048131
       7561.5   0.000481252
         7562   0.000481195
       7562.5   0.000481137
         7563   0.000481079
       7563.5   0.000481021
         7564   0.000480963
       7564.5   0.000480905
         7565   0.000480847
       7565.5   0.000480789
         7566   0.000480731
       7566.5   0.000480674
         7567   0.000480616
       7567.5   0.000480558
         7568     0.0004805
       7568.5   0.000480442
         7569   0.000480385
       7569.5   0.000480327
         7570   0.000480269
       7570.5   0.000480211
         7571   0.000480153
       7571.5   0.000480096
         7572   0.000480038
       7572.5    0.00047998
         7573   0.000479922
       7573.5   0.000479865
         7574   0.000479807
       7574.5   0.000479749
         7575   0.000479692
       7575.5   0.000479634
         7576   0.000479576
       7576.5   0.000479519
         7577   0.000479461
       7577.5   0.000479403
         7578   0.000479346
       7578.5   0.000479288
         7579   0.000479231
       7579.5   0.000479173
         7580   0.000479115
       7580.5   0.000479058
         7581      0.000479
       7581.5   0.000478943
         7582   0.000478885
       7582.5   0.000478828
         7583    0.00047877
       7583.5   0.000478713
         7584   0.000478655
       7584.5   0.000478598
         7585    0.00047854
       7585.5   0.000478483
         7586   0.000478425
       7586.5   0.000478368
         7587    0.00047831
       7587.5   0.000478253
         7588   0.000478195
       7588.5   0.000478138
         7589    0.00047808
       7589.5   0.000478023
         7590   0.000477966
       7590.5   0.000477908
         7591   0.000477851
       7591.5   0.000477794
         7592   0.000477736
       7592.5   0.000477679
         7593   0.000477621
       7593.5   0.000477564
         7594   0.000477507
       7594.5    0.00047745
         7595   0.000477392
       7595.5   0.000477335
         7596   0.000477278
       7596.5    0.00047722
         7597   0.000477163
       7597.5   0.000477106
         7598   0.000477049
       7598.5   0.000476991
         7599   0.000476934
       7599.5   0.000476877
         7600    0.00047682
       7600.5   0.000476763
         7601   0.000476705
       7601.5   0.000476648
         7602   0.000476591
       7602.5   0.000476534
         7603   0.000476477
       7603.5    0.00047642
         7604   0.000476362
       7604.5   0.000476305
         7605   0.000476248
       7605.5   0.000476191
         7606   0.000476134
       7606.5   0.000476077
         7607    0.00047602
       7607.5   0.000475963
         7608   0.000475906
       7608.5   0.000475849
         7609   0.000475792
       7609.5   0.000475735
         7610   0.000475678
       7610.5   0.000475621
         7611   0.000475564
       7611.5   0.000475507
         7612    0.00047545
       7612.5   0.000475393
         7613   0.000475336
       7613.5   0.000475279
         7614   0.000475222
       7614.5   0.000475165
         7615   0.000475108
       7615.5   0.000475051
         7616   0.000474994
       7616.5   0.000474937
         7617    0.00047488
       7617.5   0.000474823
         7618   0.000474767
       7618.5    0.00047471
         7619   0.000474653
       7619.5   0.000474596
         7620   0.000474539
       7620.5   0.000474482
         7621   0.000474426
       7621.5   0.000474369
         7622   0.000474312
       7622.5   0.000474255
         7623   0.000474198
       7623.5   0.000474142
         7624   0.000474085
       7624.5   0.000474028
         7625   0.000473971
       7625.5   0.000473915
         7626   0.000473858
       7626.5   0.000473801
         7627   0.000473745
       7627.5   0.000473688
         7628   0.000473631
       7628.5   0.000473575
         7629   0.000473518
       7629.5   0.000473461
         7630   0.000473405
       7630.5   0.000473348
         7631   0.000473291
       7631.5   0.000473235
         7632   0.000473178
       7632.5   0.000473121
         7633   0.000473065
       7633.5   0.000473008
         7634   0.000472952
       7634.5   0.000472895
         7635   0.000472839
       7635.5   0.000472782
         7636   0.000472726
       7636.5   0.000472669
         7637   0.000472613
       7637.5   0.000472556
         7638     0.0004725
       7638.5   0.000472443
         7639   0.000472387
       7639.5    0.00047233
         7640   0.000472274
       7640.5   0.000472217
         7641   0.000472161
       7641.5   0.000472104
         7642   0.000472048
       7642.5   0.000471991
         7643   0.000471935
       7643.5   0.000471879
         7644   0.000471822
       7644.5   0.000471766
         7645    0.00047171
       7645.5   0.000471653
         7646   0.000471597
       7646.5   0.000471541
         7647   0.000471484
       7647.5   0.000471428
         7648   0.000471372
       7648.5   0.000471315
         7649   0.000471259
       7649.5   0.000471203
         7650   0.000471146
       7650.5    0.00047109
         7651   0.000471034
       7651.5   0.000470978
         7652   0.000470921
       7652.5   0.000470865
         7653   0.000470809
       7653.5   0.000470753
         7654   0.000470697
       7654.5    0.00047064
         7655   0.000470584
       7655.5   0.000470528
         7656   0.000470472
       7656.5   0.000470416
         7657    0.00047036
       7657.5   0.000470303
         7658   0.000470247
       7658.5   0.000470191
         7659   0.000470135
       7659.5   0.000470079
         7660   0.000470023
       7660.5   0.000469967
         7661   0.000469911
       7661.5   0.000469855
         7662   0.000469799
       7662.5   0.000469743
         7663   0.000469687
       7663.5   0.000469631
         7664   0.000469575
       7664.5   0.000469519
         7665   0.000469463
       7665.5   0.000469407
         7666   0.000469351
       7666.5   0.000469295
         7667   0.000469239
       7667.5   0.000469183
         7668   0.000469127
       7668.5   0.000469071
         7669   0.000469015
       7669.5   0.000468959
         7670   0.000468903
       7670.5   0.000468847
         7671   0.000468791
       7671.5   0.000468736
         7672    0.00046868
       7672.5   0.000468624
         7673   0.000468568
       7673.5   0.000468512
         7674   0.000468456
       7674.5     0.0004684
         7675   0.000468345
       7675.5   0.000468289
         7676   0.000468233
       7676.5   0.000468177
         7677   0.000468122
       7677.5   0.000468066
         7678    0.00046801
       7678.5   0.000467954
         7679   0.000467899
       7679.5   0.000467843
         7680   0.000467787
       7680.5   0.000467731
         7681   0.000467676
       7681.5    0.00046762
         7682   0.000467564
       7682.5   0.000467509
         7683   0.000467453
       7683.5   0.000467397
         7684   0.000467342
       7684.5   0.000467286
         7685    0.00046723
       7685.5   0.000467175
         7686   0.000467119
       7686.5   0.000467064
         7687   0.000467008
       7687.5   0.000466952
         7688   0.000466897
       7688.5   0.000466841
         7689   0.000466786
       7689.5    0.00046673
         7690   0.000466675
       7690.5   0.000466619
         7691   0.000466564
       7691.5   0.000466508
         7692   0.000466453
       7692.5   0.000466397
         7693   0.000466342
       7693.5   0.000466286
         7694   0.000466231
       7694.5   0.000466175
         7695    0.00046612
       7695.5   0.000466064
         7696   0.000466009
       7696.5   0.000465954
         7697   0.000465898
       7697.5   0.000465843
         7698   0.000465787
       7698.5   0.000465732
         7699   0.000465677
       7699.5   0.000465621
         7700   0.000465566
       7700.5   0.000465511
         7701   0.000465455
       7701.5     0.0004654
         7702   0.000465345
       7702.5   0.000465289
         7703   0.000465234
       7703.5   0.000465179
         7704   0.000465123
       7704.5   0.000465068
         7705   0.000465013
       7705.5   0.000464958
         7706   0.000464902
       7706.5   0.000464847
         7707   0.000464792
       7707.5   0.000464737
         7708   0.000464681
       7708.5   0.000464626
         7709   0.000464571
       7709.5   0.000464516
         7710   0.000464461
       7710.5   0.000464406
         7711    0.00046435
       7711.5   0.000464295
         7712    0.00046424
       7712.5   0.000464185
         7713    0.00046413
       7713.5   0.000464075
         7714    0.00046402
       7714.5   0.000463965
         7715    0.00046391
       7715.5   0.000463854
         7716   0.000463799
       7716.5   0.000463744
         7717   0.000463689
       7717.5   0.000463634
         7718   0.000463579
       7718.5   0.000463524
         7719   0.000463469
       7719.5   0.000463414
         7720   0.000463359
       7720.5   0.000463304
         7721   0.000463249
       7721.5   0.000463194
         7722   0.000463139
       7722.5   0.000463084
         7723   0.000463029
       7723.5   0.000462975
         7724    0.00046292
       7724.5   0.000462865
         7725    0.00046281
       7725.5   0.000462755
         7726     0.0004627
       7726.5   0.000462645
         7727    0.00046259
       7727.5   0.000462535
         7728   0.000462481
       7728.5   0.000462426
         7729   0.000462371
       7729.5   0.000462316
         7730   0.000462261
       7730.5   0.000462206
         7731   0.000462152
       7731.5   0.000462097
         7732   0.000462042
       7732.5   0.000461987
         7733   0.000461933
       7733.5   0.000461878
         7734   0.000461823
       7734.5   0.000461768
         7735   0.000461714
       7735.5   0.000461659
         7736   0.000461604
       7736.5    0.00046155
         7737   0.000461495
       7737.5    0.00046144
         7738   0.000461386
       7738.5   0.000461331
         7739   0.000461276
       7739.5   0.000461222
         7740   0.000461167
       7740.5   0.000461112
         7741   0.000461058
       7741.5   0.000461003
         7742   0.000460949
       7742.5   0.000460894
         7743   0.000460839
       7743.5   0.000460785
         7744    0.00046073
       7744.5   0.000460676
         7745   0.000460621
       7745.5   0.000460567
         7746   0.000460512
       7746.5   0.000460458
         7747   0.000460403
       7747.5   0.000460349
         7748   0.000460294
       7748.5    0.00046024
         7749   0.000460185
       7749.5   0.000460131
         7750   0.000460076
       7750.5   0.000460022
         7751   0.000459967
       7751.5   0.000459913
         7752   0.000459859
       7752.5   0.000459804
         7753    0.00045975
       7753.5   0.000459695
         7754   0.000459641
       7754.5   0.000459587
         7755   0.000459532
       7755.5   0.000459478
         7756   0.000459424
       7756.5   0.000459369
         7757   0.000459315
       7757.5   0.000459261
         7758   0.000459206
       7758.5   0.000459152
         7759   0.000459098
       7759.5   0.000459043
         7760   0.000458989
       7760.5   0.000458935
         7761   0.000458881
       7761.5   0.000458826
         7762   0.000458772
       7762.5   0.000458718
         7763   0.000458664
       7763.5   0.000458609
         7764   0.000458555
       7764.5   0.000458501
         7765   0.000458447
       7765.5   0.000458393
         7766   0.000458339
       7766.5   0.000458284
         7767    0.00045823
       7767.5   0.000458176
         7768   0.000458122
       7768.5   0.000458068
         7769   0.000458014
       7769.5    0.00045796
         7770   0.000457905
       7770.5   0.000457851
         7771   0.000457797
       7771.5   0.000457743
         7772   0.000457689
       7772.5   0.000457635
         7773   0.000457581
       7773.5   0.000457527
         7774   0.000457473
       7774.5   0.000457419
         7775   0.000457365
       7775.5   0.000457311
         7776   0.000457257
       7776.5   0.000457203
         7777   0.000457149
       7777.5   0.000457095
         7778   0.000457041
       7778.5   0.000456987
         7779   0.000456933
       7779.5   0.000456879
         7780   0.000456825
       7780.5   0.000456772
         7781   0.000456718
       7781.5   0.000456664
         7782    0.00045661
       7782.5   0.000456556
         7783   0.000456502
       7783.5   0.000456448
         7784   0.000456394
       7784.5   0.000456341
         7785   0.000456287
       7785.5   0.000456233
         7786   0.000456179
       7786.5   0.000456125
         7787   0.000456071
       7787.5   0.000456018
         7788   0.000455964
       7788.5    0.00045591
         7789   0.000455856
       7789.5   0.000455803
         7790   0.000455749
       7790.5   0.000455695
         7791   0.000455641
       7791.5   0.000455588
         7792   0.000455534
       7792.5    0.00045548
         7793   0.000455427
       7793.5   0.000455373
         7794   0.000455319
       7794.5   0.000455266
         7795   0.000455212
       7795.5   0.000455158
         7796   0.000455105
       7796.5   0.000455051
         7797   0.000454997
       7797.5   0.000454944
         7798    0.00045489
       7798.5   0.000454837
         7799   0.000454783
       7799.5   0.000454729
         7800   0.000454676
       7800.5   0.000454622
         7801   0.000454569
       7801.5   0.000454515
         7802   0.000454462
       7802.5   0.000454408
         7803   0.000454355
       7803.5   0.000454301
         7804   0.000454248
       7804.5   0.000454194
         7805   0.000454141
       7805.5   0.000454087
         7806   0.000454034
       7806.5    0.00045398
         7807   0.000453927
       7807.5   0.000453873
         7808    0.00045382
       7808.5   0.000453767
         7809   0.000453713
       7809.5    0.00045366
         7810   0.000453606
       7810.5   0.000453553
         7811     0.0004535
       7811.5   0.000453446
         7812   0.000453393
       7812.5    0.00045334
         7813   0.000453286
       7813.5   0.000453233
         7814    0.00045318
       7814.5   0.000453126
         7815   0.000453073
       7815.5    0.00045302
         7816   0.000452966
       7816.5   0.000452913
         7817    0.00045286
       7817.5   0.000452807
         7818   0.000452753
       7818.5     0.0004527
         7819   0.000452647
       7819.5   0.000452594
         7820    0.00045254
       7820.5   0.000452487
         7821   0.000452434
       7821.5   0.000452381
         7822   0.000452328
       7822.5   0.000452274
         7823   0.000452221
       7823.5   0.000452168
         7824   0.000452115
       7824.5   0.000452062
         7825   0.000452009
       7825.5   0.000451956
         7826   0.000451902
       7826.5   0.000451849
         7827   0.000451796
       7827.5   0.000451743
         7828    0.00045169
       7828.5   0.000451637
         7829   0.000451584
       7829.5   0.000451531
         7830   0.000451478
       7830.5   0.000451425
         7831   0.000451372
       7831.5   0.000451319
         7832   0.000451266
       7832.5   0.000451213
         7833    0.00045116
       7833.5   0.000451107
         7834   0.000451054
       7834.5   0.000451001
         7835   0.000450948
       7835.5   0.000450895
         7836   0.000450842
       7836.5   0.000450789
         7837   0.000450736
       7837.5   0.000450683
         7838    0.00045063
       7838.5   0.000450577
         7839   0.000450524
       7839.5   0.000450472
         7840   0.000450419
       7840.5   0.000450366
         7841   0.000450313
       7841.5    0.00045026
         7842   0.000450207
       7842.5   0.000450155
         7843   0.000450102
       7843.5   0.000450049
         7844   0.000449996
       7844.5   0.000449943
         7845    0.00044989
       7845.5   0.000449838
         7846   0.000449785
       7846.5   0.000449732
         7847   0.000449679
       7847.5   0.000449627
         7848   0.000449574
       7848.5   0.000449521
         7849   0.000449469
       7849.5   0.000449416
         7850   0.000449363
       7850.5    0.00044931
         7851   0.000449258
       7851.5   0.000449205
         7852   0.000449152
       7852.5     0.0004491
         7853   0.000449047
       7853.5   0.000448994
         7854   0.000448942
       7854.5   0.000448889
         7855   0.000448837
       7855.5   0.000448784
         7856   0.000448731
       7856.5   0.000448679
         7857   0.000448626
       7857.5   0.000448574
         7858   0.000448521
       7858.5   0.000448469
         7859   0.000448416
       7859.5   0.000448363
         7860   0.000448311
       7860.5   0.000448258
         7861   0.000448206
       7861.5   0.000448153
         7862   0.000448101
       7862.5   0.000448048
         7863   0.000447996
       7863.5   0.000447943
         7864   0.000447891
       7864.5   0.000447839
         7865   0.000447786
       7865.5   0.000447734
         7866   0.000447681
       7866.5   0.000447629
         7867   0.000447576
       7867.5   0.000447524
         7868   0.000447472
       7868.5   0.000447419
         7869   0.000447367
       7869.5   0.000447315
         7870   0.000447262
       7870.5    0.00044721
         7871   0.000447157
       7871.5   0.000447105
         7872   0.000447053
       7872.5   0.000447001
         7873   0.000446948
       7873.5   0.000446896
         7874   0.000446844
       7874.5   0.000446791
         7875   0.000446739
       7875.5   0.000446687
         7876   0.000446635
       7876.5   0.000446582
         7877    0.00044653
       7877.5   0.000446478
         7878   0.000446426
       7878.5   0.000446373
         7879   0.000446321
       7879.5   0.000446269
         7880   0.000446217
       7880.5   0.000446165
         7881   0.000446112
       7881.5    0.00044606
         7882   0.000446008
       7882.5   0.000445956
         7883   0.000445904
       7883.5   0.000445852
         7884     0.0004458
       7884.5   0.000445748
         7885   0.000445695
       7885.5   0.000445643
         7886   0.000445591
       7886.5   0.000445539
         7887   0.000445487
       7887.5   0.000445435
         7888   0.000445383
       7888.5   0.000445331
         7889   0.000445279
       7889.5   0.000445227
         7890   0.000445175
       7890.5   0.000445123
         7891   0.000445071
       7891.5   0.000445019
         7892   0.000444967
       7892.5   0.000444915
         7893   0.000444863
       7893.5   0.000444811
         7894   0.000444759
       7894.5   0.000444707
         7895   0.000444655
       7895.5   0.000444603
         7896   0.000444551
       7896.5   0.000444499
         7897   0.000444448
       7897.5   0.000444396
         7898   0.000444344
       7898.5   0.000444292
         7899    0.00044424
       7899.5   0.000444188
         7900   0.000444136
       7900.5   0.000444084
         7901   0.000444033
       7901.5   0.000443981
         7902   0.000443929
       7902.5   0.000443877
         7903   0.000443825
       7903.5   0.000443774
         7904   0.000443722
       7904.5    0.00044367
         7905   0.000443618
       7905.5   0.000443567
         7906   0.000443515
       7906.5   0.000443463
         7907   0.000443411
       7907.5    0.00044336
         7908   0.000443308
       7908.5   0.000443256
         7909   0.000443204
       7909.5   0.000443153
         7910   0.000443101
       7910.5   0.000443049
         7911   0.000442998
       7911.5   0.000442946
         7912   0.000442894
       7912.5   0.000442843
         7913   0.000442791
       7913.5    0.00044274
         7914   0.000442688
       7914.5   0.000442636
         7915   0.000442585
       7915.5   0.000442533
         7916   0.000442482
       7916.5    0.00044243
         7917   0.000442378
       7917.5   0.000442327
         7918   0.000442275
       7918.5   0.000442224
         7919   0.000442172
       7919.5   0.000442121
         7920   0.000442069
       7920.5   0.000442018
         7921   0.000441966
       7921.5   0.000441915
         7922   0.000441863
       7922.5   0.000441812
         7923    0.00044176
       7923.5   0.000441709
         7924   0.000441657
       7924.5   0.000441606
         7925   0.000441555
       7925.5   0.000441503
         7926   0.000441452
       7926.5     0.0004414
         7927   0.000441349
       7927.5   0.000441298
         7928   0.000441246
       7928.5   0.000441195
         7929   0.000441143
       7929.5   0.000441092
         7930   0.000441041
       7930.5   0.000440989
         7931   0.000440938
       7931.5   0.000440887
         7932   0.000440835
       7932.5   0.000440784
         7933   0.000440733
       7933.5   0.000440682
         7934    0.00044063
       7934.5   0.000440579
         7935   0.000440528
       7935.5   0.000440477
         7936   0.000440425
       7936.5   0.000440374
         7937   0.000440323
       7937.5   0.000440272
         7938    0.00044022
       7938.5   0.000440169
         7939   0.000440118
       7939.5   0.000440067
         7940   0.000440016
       7940.5   0.000439964
         7941   0.000439913
       7941.5   0.000439862
         7942   0.000439811
       7942.5    0.00043976
         7943   0.000439709
       7943.5   0.000439658
         7944   0.000439606
       7944.5   0.000439555
         7945   0.000439504
       7945.5   0.000439453
         7946   0.000439402
       7946.5   0.000439351
         7947     0.0004393
       7947.5   0.000439249
         7948   0.000439198
       7948.5   0.000439147
         7949   0.000439096
       7949.5   0.000439045
         7950   0.000438994
       7950.5   0.000438943
         7951   0.000438892
       7951.5   0.000438841
         7952    0.00043879
       7952.5   0.000438739
         7953   0.000438688
       7953.5   0.000438637
         7954   0.000438586
       7954.5   0.000438535
         7955   0.000438484
       7955.5   0.000438433
         7956   0.000438382
       7956.5   0.000438331
         7957    0.00043828
       7957.5    0.00043823
         7958   0.000438179
       7958.5   0.000438128
         7959   0.000438077
       7959.5   0.000438026
         7960   0.000437975
       7960.5   0.000437924
         7961   0.000437874
       7961.5   0.000437823
         7962   0.000437772
       7962.5   0.000437721
         7963    0.00043767
       7963.5    0.00043762
         7964   0.000437569
       7964.5   0.000437518
         7965   0.000437467
       7965.5   0.000437417
         7966   0.000437366
       7966.5   0.000437315
         7967   0.000437264
       7967.5   0.000437214
         7968   0.000437163
       7968.5   0.000437112
         7969   0.000437061
       7969.5   0.000437011
         7970    0.00043696
       7970.5   0.000436909
         7971   0.000436859
       7971.5   0.000436808
         7972   0.000436757
       7972.5   0.000436707
         7973   0.000436656
       7973.5   0.000436606
         7974   0.000436555
       7974.5   0.000436504
         7975   0.000436454
       7975.5   0.000436403
         7976   0.000436353
       7976.5   0.000436302
         7977   0.000436251
       7977.5   0.000436201
         7978    0.00043615
       7978.5     0.0004361
         7979   0.000436049
       7979.5   0.000435999
         7980   0.000435948
       7980.5   0.000435898
         7981   0.000435847
       7981.5   0.000435797
         7982   0.000435746
       7982.5   0.000435696
         7983   0.000435645
       7983.5   0.000435595
         7984   0.000435544
       7984.5   0.000435494
         7985   0.000435443
       7985.5   0.000435393
         7986   0.000435343
       7986.5   0.000435292
         7987   0.000435242
       7987.5   0.000435191
         7988   0.000435141
       7988.5   0.000435091
         7989    0.00043504
       7989.5    0.00043499
         7990   0.000434939
       7990.5   0.000434889
         7991   0.000434839
       7991.5   0.000434788
         7992   0.000434738
       7992.5   0.000434688
         7993   0.000434638
       7993.5   0.000434587
         7994   0.000434537
       7994.5   0.000434487
         7995   0.000434436
       7995.5   0.000434386
         7996   0.000434336
       7996.5   0.000434286
         7997   0.000434235
       7997.5   0.000434185
         7998   0.000434135
       7998.5   0.000434085
         7999   0.000434034
       7999.5   0.000433984
         8000   0.000433934
       8000.5   0.000433884
         8001   0.000433834
       8001.5   0.000433784
         8002   0.000433733
       8002.5   0.000433683
         8003   0.000433633
       8003.5   0.000433583
         8004   0.000433533
       8004.5   0.000433483
         8005   0.000433433
       8005.5   0.000433383
         8006   0.000433332
       8006.5   0.000433282
         8007   0.000433232
       8007.5   0.000433182
         8008   0.000433132
       8008.5   0.000433082
         8009   0.000433032
       8009.5   0.000432982
         8010   0.000432932
       8010.5   0.000432882
         8011   0.000432832
       8011.5   0.000432782
         8012   0.000432732
       8012.5   0.000432682
         8013   0.000432632
       8013.5   0.000432582
         8014   0.000432532
       8014.5   0.000432482
         8015   0.000432432
       8015.5   0.000432382
         8016   0.000432332
       8016.5   0.000432282
         8017   0.000432232
       8017.5   0.000432182
         8018   0.000432133
       8018.5   0.000432083
         8019   0.000432033
       8019.5   0.000431983
         8020   0.000431933
       8020.5   0.000431883
         8021   0.000431833
       8021.5   0.000431783
         8022   0.000431734
       8022.5   0.000431684
         8023   0.000431634
       8023.5   0.000431584
         8024   0.000431534
       8024.5   0.000431485
         8025   0.000431435
       8025.5   0.000431385
         8026   0.000431335
       8026.5   0.000431285
         8027   0.000431236
       8027.5   0.000431186
         8028   0.000431136
       8028.5   0.000431086
         8029   0.000431037
       8029.5   0.000430987
         8030   0.000430937
       8030.5   0.000430888
         8031   0.000430838
       8031.5   0.000430788
         8032   0.000430739
       8032.5   0.000430689
         8033   0.000430639
       8033.5    0.00043059
         8034    0.00043054