# Probe 0 (0.05 0.05 0.005)
#       Probe             0
#        Time
       7500.5   1.92249e+09
         7501   1.92235e+09
       7501.5   1.92222e+09
         7502   1.92208e+09
       7502.5   1.92194e+09
         7503   1.92181e+09
       7503.5   1.92167e+09
         7504   1.92153e+09
       7504.5    1.9214e+09
         7505   1.92126e+09
       7505.5   1.92113e+09
         7506   1.92099e+09
       7506.5   1.92085e+09
         7507   1.92072e+09
       7507.5   1.92058e+09
         7508   1.92044e+09
       7508.5   1.92031e+09
         7509   1.92017e+09
       7509.5   1.92003e+09
         7510    1.9199e+09
       7510.5   1.91976e+09
         7511   1.91963e+09
       7511.5   1.91949e+09
         7512   1.91935e+09
       7512.5   1.91922e+09
         7513   1.91908e+09
       7513.5   1.91894e+09
         7514   1.91881e+09
       7514.5   1.91867e+09
         7515   1.91853e+09
       7515.5    1.9184e+09
         7516   1.91826e+09
       7516.5   1.91812e+09
         7517   1.91799e+09
       7517.5   1.91785e+09
         7518   1.91771e+09
       7518.5   1.91758e+09
         7519   1.91744e+09
       7519.5   1.91731e+09
         7520   1.91717e+09
       7520.5   1.91703e+09
         7521    1.9169e+09
       7521.5   1.91676e+09
         7522   1.91662e+09
       7522.5   1.91649e+09
         7523   1.91635e+09
       7523.5   1.91621e+09
         7524   1.91608e+09
       7524.5   1.91594e+09
         7525    1.9158e+09
       7525.5   1.91567e+09
         7526   1.91553e+09
       7526.5   1.91539e+09
         7527   1.91526e+09
       7527.5   1.91512e+09
         7528   1.91498e+09
       7528.5   1.91485e+09
         7529   1.91471e+09
       7529.5   1.91457e+09
         7530   1.91444e+09
       7530.5    1.9143e+09
         7531   1.91417e+09
       7531.5   1.91403e+09
         7532   1.91389e+09
       7532.5   1.91376e+09
         7533   1.91362e+09
       7533.5   1.91348e+09
         7534   1.91335e+09
       7534.5   1.91321e+09
         7535   1.91307e+09
       7535.5   1.91294e+09
         7536    1.9128e+09
       7536.5   1.91266e+09
         7537   1.91253e+09
       7537.5   1.91239e+09
         7538   1.91225e+09
       7538.5   1.91212e+09
         7539   1.91198e+09
       7539.5   1.91184e+09
         7540   1.91171e+09
       7540.5   1.91157e+09
         7541   1.91143e+09
       7541.5    1.9113e+09
         7542   1.91116e+09
       7542.5   1.91102e+09
         7543   1.91089e+09
       7543.5   1.91075e+09
         7544   1.91061e+09
       7544.5   1.91048e+09
         7545   1.91034e+09
       7545.5    1.9102e+09
         7546   1.91007e+09
       7546.5   1.90993e+09
         7547   1.90979e+09
       7547.5   1.90966e+09
         7548   1.90952e+09
       7548.5   1.90938e+09
         7549   1.90925e+09
       7549.5   1.90911e+09
         7550   1.90897e+09
       7550.5   1.90884e+09
         7551    1.9087e+09
       7551.5   1.90856e+09
         7552   1.90842e+09
       7552.5   1.90829e+09
         7553   1.90815e+09
       7553.5   1.90801e+09
         7554   1.90788e+09
       7554.5   1.90774e+09
         7555    1.9076e+09
       7555.5   1.90747e+09
         7556   1.90733e+09
       7556.5   1.90719e+09
         7557   1.90706e+09
       7557.5   1.90692e+09
         7558   1.90678e+09
       7558.5   1.90665e+09
         7559   1.90651e+09
       7559.5   1.90637e+09
         7560   1.90624e+09
       7560.5    1.9061e+09
         7561   1.90596e+09
       7561.5   1.90583e+09
         7562   1.90569e+09
       7562.5   1.90555e+09
         7563   1.90542e+09
       7563.5   1.90528e+09
         7564   1.90514e+09
       7564.5     1.905e+09
         7565   1.90487e+09
       7565.5   1.90473e+09
         7566   1.90459e+09
       7566.5   1.90446e+09
         7567   1.90432e+09
       7567.5   1.90418e+09
         7568   1.90405e+09
       7568.5   1.90391e+09
         7569   1.90377e+09
       7569.5   1.90364e+09
         7570    1.9035e+09
       7570.5   1.90336e+09
         7571   1.90323e+09
       7571.5   1.90309e+09
         7572   1.90295e+09
       7572.5   1.90281e+09
         7573   1.90268e+09
       7573.5   1.90254e+09
         7574    1.9024e+09
       7574.5   1.90227e+09
         7575   1.90213e+09
       7575.5   1.90199e+09
         7576   1.90186e+09
       7576.5   1.90172e+09
         7577   1.90158e+09
       7577.5   1.90144e+09
         7578   1.90131e+09
       7578.5   1.90117e+09
         7579   1.90103e+09
       7579.5    1.9009e+09
         7580   1.90076e+09
       7580.5   1.90062e+09
         7581   1.90049e+09
       7581.5   1.90035e+09
         7582   1.90021e+09
       7582.5   1.90008e+09
         7583   1.89994e+09
       7583.5    1.8998e+09
         7584   1.89966e+09
       7584.5   1.89953e+09
         7585   1.89939e+09
       7585.5   1.89925e+09
         7586   1.89912e+09
       7586.5   1.89898e+09
         7587   1.89884e+09
       7587.5    1.8987e+09
         7588   1.89857e+09
       7588.5   1.89843e+09
         7589   1.89829e+09
       7589.5   1.89816e+09
         7590   1.89802e+09
       7590.5   1.89788e+09
         7591   1.89775e+09
       7591.5   1.89761e+09
         7592   1.89747e+09
       7592.5   1.89733e+09
         7593    1.8972e+09
       7593.5   1.89706e+09
         7594   1.89692e+09
       7594.5   1.89679e+09
         7595   1.89665e+09
       7595.5   1.89651e+09
         7596   1.89637e+09
       7596.5   1.89624e+09
         7597    1.8961e+09
       7597.5   1.89596e+09
         7598   1.89583e+09
       7598.5   1.89569e+09
         7599   1.89555e+09
       7599.5   1.89541e+09
         7600   1.89528e+09
       7600.5   1.89514e+09
         7601     1.895e+09
       7601.5   1.89487e+09
         7602   1.89473e+09
       7602.5   1.89459e+09
         7603   1.89445e+09
       7603.5   1.89432e+09
         7604   1.89418e+09
       7604.5   1.89404e+09
         7605   1.89391e+09
       7605.5   1.89377e+09
         7606   1.89363e+09
       7606.5   1.89349e+09
         7607   1.89336e+09
       7607.5   1.89322e+09
         7608   1.89308e+09
       7608.5   1.89295e+09
         7609   1.89281e+09
       7609.5   1.89267e+09
         7610   1.89253e+09
       7610.5    1.8924e+09
         7611   1.89226e+09
       7611.5   1.89212e+09
         7612   1.89199e+09
       7612.5   1.89185e+09
         7613   1.89171e+09
       7613.5   1.89157e+09
         7614   1.89144e+09
       7614.5    1.8913e+09
         7615   1.89116e+09
       7615.5   1.89102e+09
         7616   1.89089e+09
       7616.5   1.89075e+09
         7617   1.89061e+09
       7617.5   1.89048e+09
         7618   1.89034e+09
       7618.5    1.8902e+09
         7619   1.89006e+09
       7619.5   1.88993e+09
         7620   1.88979e+09
       7620.5   1.88965e+09
         7621   1.88951e+09
       7621.5   1.88938e+09
         7622   1.88924e+09
       7622.5    1.8891e+09
         7623   1.88896e+09
       7623.5   1.88883e+09
         7624   1.88869e+09
       7624.5   1.88855e+09
         7625   1.88842e+09
       7625.5   1.88828e+09
         7626   1.88814e+09
       7626.5     1.888e+09
         7627   1.88787e+09
       7627.5   1.88773e+09
         7628   1.88759e+09
       7628.5   1.88745e+09
         7629   1.88732e+09
       7629.5   1.88718e+09
         7630   1.88704e+09
       7630.5    1.8869e+09
         7631   1.88677e+09
       7631.5   1.88663e+09
         7632   1.88649e+09
       7632.5   1.88636e+09
         7633   1.88622e+09
       7633.5   1.88608e+09
         7634   1.88594e+09
       7634.5   1.88581e+09
         7635   1.88567e+09
       7635.5   1.88553e+09
         7636   1.88539e+09
       7636.5   1.88526e+09
         7637   1.88512e+09
       7637.5   1.88498e+09
         7638   1.88484e+09
       7638.5   1.88471e+09
         7639   1.88457e+09
       7639.5   1.88443e+09
         7640   1.88429e+09
       7640.5   1.88416e+09
         7641   1.88402e+09
       7641.5   1.88388e+09
         7642   1.88374e+09
       7642.5   1.88361e+09
         7643   1.88347e+09
       7643.5   1.88333e+09
         7644   1.88319e+09
       7644.5   1.88306e+09
         7645   1.88292e+09
       7645.5   1.88278e+09
         7646   1.88264e+09
       7646.5   1.88251e+09
         7647   1.88237e+09
       7647.5   1.88223e+09
         7648   1.88209e+09
       7648.5   1.88196e+09
         7649   1.88182e+09
       7649.5   1.88168e+09
         7650   1.88154e+09
       7650.5   1.88141e+09
         7651   1.88127e+09
       7651.5   1.88113e+09
         7652   1.88099e+09
       7652.5   1.88086e+09
         7653   1.88072e+09
       7653.5   1.88058e+09
         7654   1.88044e+09
       7654.5   1.88031e+09
         7655   1.88017e+09
       7655.5   1.88003e+09
         7656   1.87989e+09
       7656.5   1.87976e+09
         7657   1.87962e+09
       7657.5   1.87948e+09
         7658   1.87934e+09
       7658.5   1.87921e+09
         7659   1.87907e+09
       7659.5   1.87893e+09
         7660   1.87879e+09
       7660.5   1.87865e+09
         7661   1.87852e+09
       7661.5   1.87838e+09
         7662   1.87824e+09
       7662.5    1.8781e+09
         7663   1.87797e+09
       7663.5   1.87783e+09
         7664   1.87769e+09
       7664.5   1.87755e+09
         7665   1.87742e+09
       7665.5   1.87728e+09
         7666   1.87714e+09
       7666.5     1.877e+09
         7667   1.87687e+09
       7667.5   1.87673e+09
         7668   1.87659e+09
       7668.5   1.87645e+09
         7669   1.87632e+09
       7669.5   1.87618e+09
         7670   1.87604e+09
       7670.5    1.8759e+09
         7671   1.87576e+09
       7671.5   1.87563e+09
         7672   1.87549e+09
       7672.5   1.87535e+09
         7673   1.87521e+09
       7673.5   1.87508e+09
         7674   1.87494e+09
       7674.5    1.8748e+09
         7675   1.87466e+09
       7675.5   1.87452e+09
         7676   1.87439e+09
       7676.5   1.87425e+09
         7677   1.87411e+09
       7677.5   1.87397e+09
         7678   1.87384e+09
       7678.5    1.8737e+09
         7679   1.87356e+09
       7679.5   1.87342e+09
         7680   1.87329e+09
       7680.5   1.87315e+09
         7681   1.87301e+09
       7681.5   1.87287e+09
         7682   1.87273e+09
       7682.5    1.8726e+09
         7683   1.87246e+09
       7683.5   1.87232e+09
         7684   1.87218e+09
       7684.5   1.87205e+09
         7685   1.87191e+09
       7685.5   1.87177e+09
         7686   1.87163e+09
       7686.5   1.87149e+09
         7687   1.87136e+09
       7687.5   1.87122e+09
         7688   1.87108e+09
       7688.5   1.87094e+09
         7689   1.87081e+09
       7689.5   1.87067e+09
         7690   1.87053e+09
       7690.5   1.87039e+09
         7691   1.87025e+09
       7691.5   1.87012e+09
         7692   1.86998e+09
       7692.5   1.86984e+09
         7693    1.8697e+09
       7693.5   1.86956e+09
         7694   1.86943e+09
       7694.5   1.86929e+09
         7695   1.86915e+09
       7695.5   1.86901e+09
         7696   1.86888e+09
       7696.5   1.86874e+09
         7697    1.8686e+09
       7697.5   1.86846e+09
         7698   1.86832e+09
       7698.5   1.86819e+09
         7699   1.86805e+09
       7699.5   1.86791e+09
         7700   1.86777e+09
       7700.5   1.86763e+09
         7701    1.8675e+09
       7701.5   1.86736e+09
         7702   1.86722e+09
       7702.5   1.86708e+09
         7703   1.86694e+09
       7703.5   1.86681e+09
         7704   1.86667e+09
       7704.5   1.86653e+09
         7705   1.86639e+09
       7705.5   1.86625e+09
         7706   1.86612e+09
       7706.5   1.86598e+09
         7707   1.86584e+09
       7707.5    1.8657e+09
         7708   1.86556e+09
       7708.5   1.86543e+09
         7709   1.86529e+09
       7709.5   1.86515e+09
         7710   1.86501e+09
       7710.5   1.86488e+09
         7711   1.86474e+09
       7711.5    1.8646e+09
         7712   1.86446e+09
       7712.5   1.86432e+09
         7713   1.86419e+09
       7713.5   1.86405e+09
         7714   1.86391e+09
       7714.5   1.86377e+09
         7715   1.86363e+09
       7715.5   1.86349e+09
         7716   1.86336e+09
       7716.5   1.86322e+09
         7717   1.86308e+09
       7717.5   1.86294e+09
         7718    1.8628e+09
       7718.5   1.86267e+09
         7719   1.86253e+09
       7719.5   1.86239e+09
         7720   1.86225e+09
       7720.5   1.86211e+09
         7721   1.86198e+09
       7721.5   1.86184e+09
         7722    1.8617e+09
       7722.5   1.86156e+09
         7723   1.86142e+09
       7723.5   1.86129e+09
         7724   1.86115e+09
       7724.5   1.86101e+09
         7725   1.86087e+09
       7725.5   1.86073e+09
         7726    1.8606e+09
       7726.5   1.86046e+09
         7727   1.86032e+09
       7727.5   1.86018e+09
         7728   1.86004e+09
       7728.5   1.85991e+09
         7729   1.85977e+09
       7729.5   1.85963e+09
         7730   1.85949e+09
       7730.5   1.85935e+09
         7731   1.85921e+09
       7731.5   1.85908e+09
         7732   1.85894e+09
       7732.5    1.8588e+09
         7733   1.85866e+09
       7733.5   1.85852e+09
         7734   1.85839e+09
       7734.5   1.85825e+09
         7735   1.85811e+09
       7735.5   1.85797e+09
         7736   1.85783e+09
       7736.5   1.85769e+09
         7737   1.85756e+09
       7737.5   1.85742e+09
         7738   1.85728e+09
       7738.5   1.85714e+09
         7739     1.857e+09
       7739.5   1.85687e+09
         7740   1.85673e+09
       7740.5   1.85659e+09
         7741   1.85645e+09
       7741.5   1.85631e+09
         7742   1.85617e+09
       7742.5   1.85604e+09
         7743    1.8559e+09
       7743.5   1.85576e+09
         7744   1.85562e+09
       7744.5   1.85548e+09
         7745   1.85535e+09
       7745.5   1.85521e+09
         7746   1.85507e+09
       7746.5   1.85493e+09
         7747   1.85479e+09
       7747.5   1.85465e+09
         7748   1.85452e+09
       7748.5   1.85438e+09
         7749   1.85424e+09
       7749.5    1.8541e+09
         7750   1.85396e+09
       7750.5   1.85382e+09
         7751   1.85369e+09
       7751.5   1.85355e+09
         7752   1.85341e+09
       7752.5   1.85327e+09
         7753   1.85313e+09
       7753.5   1.85299e+09
         7754   1.85286e+09
       7754.5   1.85272e+09
         7755   1.85258e+09
       7755.5   1.85244e+09
         7756    1.8523e+09
       7756.5   1.85216e+09
         7757   1.85203e+09
       7757.5   1.85189e+09
         7758   1.85175e+09
       7758.5   1.85161e+09
         7759   1.85147e+09
       7759.5   1.85133e+09
         7760    1.8512e+09
       7760.5   1.85106e+09
         7761   1.85092e+09
       7761.5   1.85078e+09
         7762   1.85064e+09
       7762.5    1.8505e+09
         7763   1.85037e+09
       7763.5   1.85023e+09
         7764   1.85009e+09
       7764.5   1.84995e+09
         7765   1.84981e+09
       7765.5   1.84967e+09
         7766   1.84954e+09
       7766.5    1.8494e+09
         7767   1.84926e+09
       7767.5   1.84912e+09
         7768   1.84898e+09
       7768.5   1.84884e+09
         7769   1.84871e+09
       7769.5   1.84857e+09
         7770   1.84843e+09
       7770.5   1.84829e+09
         7771   1.84815e+09
       7771.5   1.84801e+09
         7772   1.84787e+09
       7772.5   1.84774e+09
         7773    1.8476e+09
       7773.5   1.84746e+09
         7774   1.84732e+09
       7774.5   1.84718e+09
         7775   1.84704e+09
       7775.5   1.84691e+09
         7776   1.84677e+09
       7776.5   1.84663e+09
         7777   1.84649e+09
       7777.5   1.84635e+09
         7778   1.84621e+09
       7778.5   1.84607e+09
         7779   1.84594e+09
       7779.5    1.8458e+09
         7780   1.84566e+09
       7780.5   1.84552e+09
         7781   1.84538e+09
       7781.5   1.84524e+09
         7782   1.84511e+09
       7782.5   1.84497e+09
         7783   1.84483e+09
       7783.5   1.84469e+09
         7784   1.84455e+09
       7784.5   1.84441e+09
         7785   1.84427e+09
       7785.5   1.84414e+09
         7786     1.844e+09
       7786.5   1.84386e+09
         7787   1.84372e+09
       7787.5   1.84358e+09
         7788   1.84344e+09
       7788.5    1.8433e+09
         7789   1.84317e+09
       7789.5   1.84303e+09
         7790   1.84289e+09
       7790.5   1.84275e+09
         7791   1.84261e+09
       7791.5   1.84247e+09
         7792   1.84233e+09
       7792.5    1.8422e+09
         7793   1.84206e+09
       7793.5   1.84192e+09
         7794   1.84178e+09
       7794.5   1.84164e+09
         7795    1.8415e+09
       7795.5   1.84136e+09
         7796   1.84123e+09
       7796.5   1.84109e+09
         7797   1.84095e+09
       7797.5   1.84081e+09
         7798   1.84067e+09
       7798.5   1.84053e+09
         7799   1.84039e+09
       7799.5   1.84026e+09
         7800   1.84012e+09
       7800.5   1.83998e+09
         7801   1.83984e+09
       7801.5    1.8397e+09
         7802   1.83956e+09
       7802.5   1.83942e+09
         7803   1.83928e+09
       7803.5   1.83915e+09
         7804   1.83901e+09
       7804.5   1.83887e+09
         7805   1.83873e+09
       7805.5   1.83859e+09
         7806   1.83845e+09
       7806.5   1.83831e+09
         7807   1.83818e+09
       7807.5   1.83804e+09
         7808    1.8379e+09
       7808.5   1.83776e+09
         7809   1.83762e+09
       7809.5   1.83748e+09
         7810   1.83734e+09
       7810.5    1.8372e+09
         7811   1.83707e+09
       7811.5   1.83693e+09
         7812   1.83679e+09
       7812.5   1.83665e+09
         7813   1.83651e+09
       7813.5   1.83637e+09
         7814   1.83623e+09
       7814.5   1.83609e+09
         7815   1.83596e+09
       7815.5   1.83582e+09
         7816   1.83568e+09
       7816.5   1.83554e+09
         7817    1.8354e+09
       7817.5   1.83526e+09
         7818   1.83512e+09
       7818.5   1.83498e+09
         7819   1.83485e+09
       7819.5   1.83471e+09
         7820   1.83457e+09
       7820.5   1.83443e+09
         7821   1.83429e+09
       7821.5   1.83415e+09
         7822   1.83401e+09
       7822.5   1.83387e+09
         7823   1.83374e+09
       7823.5    1.8336e+09
         7824   1.83346e+09
       7824.5   1.83332e+09
         7825   1.83318e+09
       7825.5   1.83304e+09
         7826    1.8329e+09
       7826.5   1.83276e+09
         7827   1.83263e+09
       7827.5   1.83249e+09
         7828   1.83235e+09
       7828.5   1.83221e+09
         7829   1.83207e+09
       7829.5   1.83193e+09
         7830   1.83179e+09
       7830.5   1.83165e+09
         7831   1.83151e+09
       7831.5   1.83138e+09
         7832   1.83124e+09
       7832.5    1.8311e+09
         7833   1.83096e+09
       7833.5   1.83082e+09
         7834   1.83068e+09
       7834.5   1.83054e+09
         7835    1.8304e+09
       7835.5   1.83026e+09
         7836   1.83013e+09
       7836.5   1.82999e+09
         7837   1.82985e+09
       7837.5   1.82971e+09
         7838   1.82957e+09
       7838.5   1.82943e+09
         7839   1.82929e+09
       7839.5   1.82915e+09
         7840   1.82901e+09
       7840.5   1.82888e+09
         7841   1.82874e+09
       7841.5    1.8286e+09
         7842   1.82846e+09
       7842.5   1.82832e+09
         7843   1.82818e+09
       7843.5   1.82804e+09
         7844    1.8279e+09
       7844.5   1.82776e+09
         7845   1.82763e+09
       7845.5   1.82749e+09
         7846   1.82735e+09
       7846.5   1.82721e+09
         7847   1.82707e+09
       7847.5   1.82693e+09
         7848   1.82679e+09
       7848.5   1.82665e+09
         7849   1.82651e+09
       7849.5   1.82637e+09
         7850   1.82624e+09
       7850.5    1.8261e+09
         7851   1.82596e+09
       7851.5   1.82582e+09
         7852   1.82568e+09
       7852.5   1.82554e+09
         7853    1.8254e+09
       7853.5   1.82526e+09
         7854   1.82512e+09
       7854.5   1.82498e+09
         7855   1.82485e+09
       7855.5   1.82471e+09
         7856   1.82457e+09
       7856.5   1.82443e+09
         7857   1.82429e+09
       7857.5   1.82415e+09
         7858   1.82401e+09
       7858.5   1.82387e+09
         7859   1.82373e+09
       7859.5   1.82359e+09
         7860   1.82346e+09
       7860.5   1.82332e+09
         7861   1.82318e+09
       7861.5   1.82304e+09
         7862    1.8229e+09
       7862.5   1.82276e+09
         7863   1.82262e+09
       7863.5   1.82248e+09
         7864   1.82234e+09
       7864.5    1.8222e+09
         7865   1.82206e+09
       7865.5   1.82193e+09
         7866   1.82179e+09
       7866.5   1.82165e+09
         7867   1.82151e+09
       7867.5   1.82137e+09
         7868   1.82123e+09
       7868.5   1.82109e+09
         7869   1.82095e+09
       7869.5   1.82081e+09
         7870   1.82067e+09
       7870.5   1.82053e+09
         7871    1.8204e+09
       7871.5   1.82026e+09
         7872   1.82012e+09
       7872.5   1.81998e+09
         7873   1.81984e+09
       7873.5    1.8197e+09
         7874   1.81956e+09
       7874.5   1.81942e+09
         7875   1.81928e+09
       7875.5   1.81914e+09
         7876     1.819e+09
       7876.5   1.81886e+09
         7877   1.81873e+09
       7877.5   1.81859e+09
         7878   1.81845e+09
       7878.5   1.81831e+09
         7879   1.81817e+09
       7879.5   1.81803e+09
         7880   1.81789e+09
       7880.5   1.81775e+09
         7881   1.81761e+09
       7881.5   1.81747e+09
         7882   1.81733e+09
       7882.5   1.81719e+09
         7883   1.81706e+09
       7883.5   1.81692e+09
         7884   1.81678e+09
       7884.5   1.81664e+09
         7885    1.8165e+09
       7885.5   1.81636e+09
         7886   1.81622e+09
       7886.5   1.81608e+09
         7887   1.81594e+09
       7887.5    1.8158e+09
         7888   1.81566e+09
       7888.5   1.81552e+09
         7889   1.81538e+09
       7889.5   1.81525e+09
         7890   1.81511e+09
       7890.5   1.81497e+09
         7891   1.81483e+09
       7891.5   1.81469e+09
         7892   1.81455e+09
       7892.5   1.81441e+09
         7893   1.81427e+09
       7893.5   1.81413e+09
         7894   1.81399e+09
       7894.5   1.81385e+09
         7895   1.81371e+09
       7895.5   1.81357e+09
         7896   1.81344e+09
       7896.5    1.8133e+09
         7897   1.81316e+09
       7897.5   1.81302e+09
         7898   1.81288e+09
       7898.5   1.81274e+09
         7899    1.8126e+09
       7899.5   1.81246e+09
         7900   1.81232e+09
       7900.5   1.81218e+09
         7901   1.81204e+09
       7901.5    1.8119e+09
         7902   1.81176e+09
       7902.5   1.81162e+09
         7903   1.81148e+09
       7903.5   1.81135e+09
         7904   1.81121e+09
       7904.5   1.81107e+09
         7905   1.81093e+09
       7905.5   1.81079e+09
         7906   1.81065e+09
       7906.5   1.81051e+09
         7907   1.81037e+09
       7907.5   1.81023e+09
         7908   1.81009e+09
       7908.5   1.80995e+09
         7909   1.80981e+09
       7909.5   1.80967e+09
         7910   1.80953e+09
       7910.5   1.80939e+09
         7911   1.80925e+09
       7911.5   1.80912e+09
         7912   1.80898e+09
       7912.5   1.80884e+09
         7913    1.8087e+09
       7913.5   1.80856e+09
         7914   1.80842e+09
       7914.5   1.80828e+09
         7915   1.80814e+09
       7915.5     1.808e+09
         7916   1.80786e+09
       7916.5   1.80772e+09
         7917   1.80758e+09
       7917.5   1.80744e+09
         7918    1.8073e+09
       7918.5   1.80716e+09
         7919   1.80702e+09
       7919.5   1.80688e+09
         7920   1.80675e+09
       7920.5   1.80661e+09
         7921   1.80647e+09
       7921.5   1.80633e+09
         7922   1.80619e+09
       7922.5   1.80605e+09
         7923   1.80591e+09
       7923.5   1.80577e+09
         7924   1.80563e+09
       7924.5   1.80549e+09
         7925   1.80535e+09
       7925.5   1.80521e+09
         7926   1.80507e+09
       7926.5   1.80493e+09
         7927   1.80479e+09
       7927.5   1.80465e+09
         7928   1.80451e+09
       7928.5   1.80437e+09
         7929   1.80423e+09
       7929.5    1.8041e+09
         7930   1.80396e+09
       7930.5   1.80382e+09
         7931   1.80368e+09
       7931.5   1.80354e+09
         7932    1.8034e+09
       7932.5   1.80326e+09
         7933   1.80312e+09
       7933.5   1.80298e+09
         7934   1.80284e+09
       7934.5    1.8027e+09
         7935   1.80256e+09
       7935.5   1.80242e+09
         7936   1.80228e+09
       7936.5   1.80214e+09
         7937     1.802e+09
       7937.5   1.80186e+09
         7938   1.80172e+09
       7938.5   1.80158e+09
         7939   1.80144e+09
       7939.5    1.8013e+09
         7940   1.80116e+09
       7940.5   1.80103e+09
         7941   1.80089e+09
       7941.5   1.80075e+09
         7942   1.80061e+09
       7942.5   1.80047e+09
         7943   1.80033e+09
       7943.5   1.80019e+09
         7944   1.80005e+09
       7944.5   1.79991e+09
         7945   1.79977e+09
       7945.5   1.79963e+09
         7946   1.79949e+09
       7946.5   1.79935e+09
         7947   1.79921e+09
       7947.5   1.79907e+09
         7948   1.79893e+09
       7948.5   1.79879e+09
         7949   1.79865e+09
       7949.5   1.79851e+09
         7950   1.79837e+09
       7950.5   1.79823e+09
         7951   1.79809e+09
       7951.5   1.79795e+09
         7952   1.79781e+09
       7952.5   1.79767e+09
         7953   1.79753e+09
       7953.5   1.79739e+09
         7954   1.79726e+09
       7954.5   1.79712e+09
         7955   1.79698e+09
       7955.5   1.79684e+09
         7956    1.7967e+09
       7956.5   1.79656e+09
         7957   1.79642e+09
       7957.5   1.79628e+09
         7958   1.79614e+09
       7958.5     1.796e+09
         7959   1.79586e+09
       7959.5   1.79572e+09
         7960   1.79558e+09
       7960.5   1.79544e+09
         7961    1.7953e+09
       7961.5   1.79516e+09
         7962   1.79502e+09
       7962.5   1.79488e+09
         7963   1.79474e+09
       7963.5    1.7946e+09
         7964   1.79446e+09
       7964.5   1.79432e+09
         7965   1.79418e+09
       7965.5   1.79404e+09
         7966    1.7939e+09
       7966.5   1.79376e+09
         7967   1.79362e+09
       7967.5   1.79348e+09
         7968   1.79334e+09
       7968.5    1.7932e+09
         7969   1.79306e+09
       7969.5   1.79292e+09
         7970   1.79278e+09
       7970.5   1.79264e+09
         7971    1.7925e+09
       7971.5   1.79236e+09
         7972   1.79222e+09
       7972.5   1.79209e+09
         7973   1.79195e+09
       7973.5   1.79181e+09
         7974   1.79167e+09
       7974.5   1.79153e+09
         7975   1.79139e+09
       7975.5   1.79125e+09
         7976   1.79111e+09
       7976.5   1.79097e+09
         7977   1.79083e+09
       7977.5   1.79069e+09
         7978   1.79055e+09
       7978.5   1.79041e+09
         7979   1.79027e+09
       7979.5   1.79013e+09
         7980   1.78999e+09
       7980.5   1.78985e+09
         7981   1.78971e+09
       7981.5   1.78957e+09
         7982   1.78943e+09
       7982.5   1.78929e+09
         7983   1.78915e+09
       7983.5   1.78901e+09
         7984   1.78887e+09
       7984.5   1.78873e+09
         7985   1.78859e+09
       7985.5   1.78845e+09
         7986   1.78831e+09
       7986.5   1.78817e+09
         7987   1.78803e+09
       7987.5   1.78789e+09
         7988   1.78775e+09
       7988.5   1.78761e+09
         7989   1.78747e+09
       7989.5   1.78733e+09
         7990   1.78719e+09
       7990.5   1.78705e+09
         7991   1.78691e+09
       7991.5   1.78677e+09
         7992   1.78663e+09
       7992.5   1.78649e+09
         7993   1.78635e+09
       7993.5   1.78621e+09
         7994   1.78607e+09
       7994.5   1.78593e+09
         7995   1.78579e+09
       7995.5   1.78565e+09
         7996   1.78551e+09
       7996.5   1.78537e+09
         7997   1.78523e+09
       7997.5   1.78509e+09
         7998   1.78495e+09
       7998.5   1.78481e+09
         7999   1.78467e+09
       7999.5   1.78453e+09
         8000   1.78439e+09
       8000.5   1.78425e+09
         8001   1.78411e+09
       8001.5   1.78397e+09
         8002   1.78383e+09
       8002.5   1.78369e+09
         8003   1.78355e+09
       8003.5   1.78341e+09
         8004   1.78327e+09
       8004.5   1.78313e+09
         8005   1.78299e+09
       8005.5   1.78285e+09
         8006   1.78271e+09
       8006.5   1.78257e+09
         8007   1.78243e+09
       8007.5   1.78229e+09
         8008   1.78215e+09
       8008.5   1.78201e+09
         8009   1.78187e+09
       8009.5   1.78173e+09
         8010   1.78159e+09
       8010.5   1.78145e+09
         8011   1.78131e+09
       8011.5   1.78117e+09
         8012   1.78103e+09
       8012.5   1.78089e+09
         8013   1.78075e+09
       8013.5   1.78061e+09
         8014   1.78047e+09
       8014.5   1.78033e+09
         8015   1.78019e+09
       8015.5   1.78005e+09
         8016   1.77991e+09
       8016.5   1.77977e+09
         8017   1.77963e+09
       8017.5   1.77949e+09
         8018   1.77935e+09
       8018.5   1.77921e+09
         8019   1.77907e+09
       8019.5   1.77893e+09
         8020   1.77879e+09
       8020.5   1.77865e+09
         8021   1.77851e+09
       8021.5   1.77837e+09
         8022   1.77823e+09
       8022.5   1.77809e+09
         8023   1.77795e+09
       8023.5   1.77781e+09
         8024   1.77767e+09
       8024.5   1.77753e+09
         8025   1.77739e+09
       8025.5   1.77725e+09
         8026   1.77711e+09
       8026.5   1.77697e+09
         8027   1.77683e+09
       8027.5   1.77669e+09
         8028   1.77655e+09
       8028.5   1.77641e+09
         8029   1.77627e+09
       8029.5   1.77613e+09
         8030   1.77599e+09
       8030.5   1.77585e+09
         8031   1.77571e+09
       8031.5   1.77557e+09
         8032   1.77543e+09
       8032.5   1.77529e+09
         8033   1.77515e+09
       8033.5   1.77501e+09
         8034   1.77487e+09