# Probe 0 (0.05 0.05 0.005)
#       Probe             0
#        Time
       7500.5       10.9896
         7501       10.9882
       7501.5       10.9867
         7502       10.9853
       7502.5       10.9838
         7503       10.9824
       7503.5       10.9809
         7504       10.9795
       7504.5        10.978
         7505       10.9766
       7505.5       10.9751
         7506       10.9737
       7506.5       10.9722
         7507       10.9708
       7507.5       10.9693
         7508       10.9679
       7508.5       10.9664
         7509        10.965
       7509.5       10.9635
         7510       10.9621
       7510.5       10.9606
         7511       10.9592
       7511.5       10.9577
         7512       10.9563
       7512.5       10.9548
         7513       10.9534
       7513.5        10.952
         7514       10.9505
       7514.5       10.9491
         7515       10.9476
       7515.5       10.9462
         7516       10.9447
       7516.5       10.9433
         7517       10.9418
       7517.5       10.9404
         7518        10.939
       7518.5       10.9375
         7519       10.9361
       7519.5       10.9346
         7520       10.9332
       7520.5       10.9317
         7521       10.9303
       7521.5       10.9289
         7522       10.9274
       7522.5        10.926
         7523       10.9245
       7523.5       10.9231
         7524       10.9217
       7524.5       10.9202
         7525       10.9188
       7525.5       10.9173
         7526       10.9159
       7526.5       10.9145
         7527        10.913
       7527.5       10.9116
         7528       10.9101
       7528.5       10.9087
         7529       10.9073
       7529.5       10.9058
         7530       10.9044
       7530.5        10.903
         7531       10.9015
       7531.5       10.9001
         7532       10.8987
       7532.5       10.8972
         7533       10.8958
       7533.5       10.8943
         7534       10.8929
       7534.5       10.8915
         7535         10.89
       7535.5       10.8886
         7536       10.8872
       7536.5       10.8857
         7537       10.8843
       7537.5       10.8829
         7538       10.8814
       7538.5         10.88
         7539       10.8786
       7539.5       10.8771
         7540       10.8757
       7540.5       10.8743
         7541       10.8728
       7541.5       10.8714
         7542         10.87
       7542.5       10.8685
         7543       10.8671
       7543.5       10.8657
         7544       10.8643
       7544.5       10.8628
         7545       10.8614
       7545.5         10.86
         7546       10.8585
       7546.5       10.8571
         7547       10.8557
       7547.5       10.8542
         7548       10.8528
       7548.5       10.8514
         7549         10.85
       7549.5       10.8485
         7550       10.8471
       7550.5       10.8457
         7551       10.8442
       7551.5       10.8428
         7552       10.8414
       7552.5         10.84
         7553       10.8385
       7553.5       10.8371
         7554       10.8357
       7554.5       10.8343
         7555       10.8328
       7555.5       10.8314
         7556         10.83
       7556.5       10.8286
         7557       10.8271
       7557.5       10.8257
         7558       10.8243
       7558.5       10.8229
         7559       10.8214
       7559.5         10.82
         7560       10.8186
       7560.5       10.8172
         7561       10.8158
       7561.5       10.8143
         7562       10.8129
       7562.5       10.8115
         7563       10.8101
       7563.5       10.8086
         7564       10.8072
       7564.5       10.8058
         7565       10.8044
       7565.5        10.803
         7566       10.8015
       7566.5       10.8001
         7567       10.7987
       7567.5       10.7973
         7568       10.7959
       7568.5       10.7944
         7569        10.793
       7569.5       10.7916
         7570       10.7902
       7570.5       10.7888
         7571       10.7873
       7571.5       10.7859
         7572       10.7845
       7572.5       10.7831
         7573       10.7817
       7573.5       10.7803
         7574       10.7788
       7574.5       10.7774
         7575        10.776
       7575.5       10.7746
         7576       10.7732
       7576.5       10.7718
         7577       10.7704
       7577.5       10.7689
         7578       10.7675
       7578.5       10.7661
         7579       10.7647
       7579.5       10.7633
         7580       10.7619
       7580.5       10.7605
         7581        10.759
       7581.5       10.7576
         7582       10.7562
       7582.5       10.7548
         7583       10.7534
       7583.5        10.752
         7584       10.7506
       7584.5       10.7492
         7585       10.7477
       7585.5       10.7463
         7586       10.7449
       7586.5       10.7435
         7587       10.7421
       7587.5       10.7407
         7588       10.7393
       7588.5       10.7379
         7589       10.7365
       7589.5       10.7351
         7590       10.7336
       7590.5       10.7322
         7591       10.7308
       7591.5       10.7294
         7592        10.728
       7592.5       10.7266
         7593       10.7252
       7593.5       10.7238
         7594       10.7224
       7594.5        10.721
         7595       10.7196
       7595.5       10.7182
         7596       10.7168
       7596.5       10.7153
         7597       10.7139
       7597.5       10.7125
         7598       10.7111
       7598.5       10.7097
         7599       10.7083
       7599.5       10.7069
         7600       10.7055
       7600.5       10.7041
         7601       10.7027
       7601.5       10.7013
         7602       10.6999
       7602.5       10.6985
         7603       10.6971
       7603.5       10.6957
         7604       10.6943
       7604.5       10.6929
         7605       10.6915
       7605.5       10.6901
         7606       10.6887
       7606.5       10.6873
         7607       10.6859
       7607.5       10.6845
         7608       10.6831
       7608.5       10.6817
         7609       10.6803
       7609.5       10.6789
         7610       10.6775
       7610.5       10.6761
         7611       10.6747
       7611.5       10.6733
         7612       10.6719
       7612.5       10.6705
         7613       10.6691
       7613.5       10.6677
         7614       10.6663
       7614.5       10.6649
         7615       10.6635
       7615.5       10.6621
         7616       10.6607
       7616.5       10.6593
         7617       10.6579
       7617.5       10.6565
         7618       10.6551
       7618.5       10.6537
         7619       10.6523
       7619.5       10.6509
         7620       10.6495
       7620.5       10.6481
         7621       10.6467
       7621.5       10.6453
         7622       10.6439
       7622.5       10.6426
         7623       10.6412
       7623.5       10.6398
         7624       10.6384
       7624.5        10.637
         7625       10.6356
       7625.5       10.6342
         7626       10.6328
       7626.5       10.6314
         7627         10.63
       7627.5       10.6286
         7628       10.6272
       7628.5       10.6258
         7629       10.6245
       7629.5       10.6231
         7630       10.6217
       7630.5       10.6203
         7631       10.6189
       7631.5       10.6175
         7632       10.6161
       7632.5       10.6147
         7633       10.6133
       7633.5       10.6119
         7634       10.6106
       7634.5       10.6092
         7635       10.6078
       7635.5       10.6064
         7636        10.605
       7636.5       10.6036
         7637       10.6022
       7637.5       10.6008
         7638       10.5995
       7638.5       10.5981
         7639       10.5967
       7639.5       10.5953
         7640       10.5939
       7640.5       10.5925
         7641       10.5911
       7641.5       10.5898
         7642       10.5884
       7642.5        10.587
         7643       10.5856
       7643.5       10.5842
         7644       10.5828
       7644.5       10.5814
         7645       10.5801
       7645.5       10.5787
         7646       10.5773
       7646.5       10.5759
         7647       10.5745
       7647.5       10.5731
         7648       10.5718
       7648.5       10.5704
         7649        10.569
       7649.5       10.5676
         7650       10.5662
       7650.5       10.5649
         7651       10.5635
       7651.5       10.5621
         7652       10.5607
       7652.5       10.5593
         7653        10.558
       7653.5       10.5566
         7654       10.5552
       7654.5       10.5538
         7655       10.5524
       7655.5       10.5511
         7656       10.5497
       7656.5       10.5483
         7657       10.5469
       7657.5       10.5455
         7658       10.5442
       7658.5       10.5428
         7659       10.5414
       7659.5         10.54
         7660       10.5387
       7660.5       10.5373
         7661       10.5359
       7661.5       10.5345
         7662       10.5332
       7662.5       10.5318
         7663       10.5304
       7663.5        10.529
         7664       10.5277
       7664.5       10.5263
         7665       10.5249
       7665.5       10.5235
         7666       10.5222
       7666.5       10.5208
         7667       10.5194
       7667.5        10.518
         7668       10.5167
       7668.5       10.5153
         7669       10.5139
       7669.5       10.5125
         7670       10.5112
       7670.5       10.5098
         7671       10.5084
       7671.5       10.5071
         7672       10.5057
       7672.5       10.5043
         7673       10.5029
       7673.5       10.5016
         7674       10.5002
       7674.5       10.4988
         7675       10.4975
       7675.5       10.4961
         7676       10.4947
       7676.5       10.4933
         7677        10.492
       7677.5       10.4906
         7678       10.4892
       7678.5       10.4879
         7679       10.4865
       7679.5       10.4851
         7680       10.4838
       7680.5       10.4824
         7681        10.481
       7681.5       10.4797
         7682       10.4783
       7682.5       10.4769
         7683       10.4756
       7683.5       10.4742
         7684       10.4728
       7684.5       10.4715
         7685       10.4701
       7685.5       10.4687
         7686       10.4674
       7686.5        10.466
         7687       10.4646
       7687.5       10.4633
         7688       10.4619
       7688.5       10.4606
         7689       10.4592
       7689.5       10.4578
         7690       10.4565
       7690.5       10.4551
         7691       10.4537
       7691.5       10.4524
         7692        10.451
       7692.5       10.4496
         7693       10.4483
       7693.5       10.4469
         7694       10.4456
       7694.5       10.4442
         7695       10.4428
       7695.5       10.4415
         7696       10.4401
       7696.5       10.4388
         7697       10.4374
       7697.5        10.436
         7698       10.4347
       7698.5       10.4333
         7699        10.432
       7699.5       10.4306
         7700       10.4292
       7700.5       10.4279
         7701       10.4265
       7701.5       10.4252
         7702       10.4238
       7702.5       10.4224
         7703       10.4211
       7703.5       10.4197
         7704       10.4184
       7704.5        10.417
         7705       10.4157
       7705.5       10.4143
         7706        10.413
       7706.5       10.4116
         7707       10.4102
       7707.5       10.4089
         7708       10.4075
       7708.5       10.4062
         7709       10.4048
       7709.5       10.4035
         7710       10.4021
       7710.5       10.4008
         7711       10.3994
       7711.5        10.398
         7712       10.3967
       7712.5       10.3953
         7713        10.394
       7713.5       10.3926
         7714       10.3913
       7714.5       10.3899
         7715       10.3886
       7715.5       10.3872
         7716       10.3859
       7716.5       10.3845
         7717       10.3832
       7717.5       10.3818
         7718       10.3805
       7718.5       10.3791
         7719       10.3778
       7719.5       10.3764
         7720       10.3751
       7720.5       10.3737
         7721       10.3724
       7721.5        10.371
         7722       10.3697
       7722.5       10.3683
         7723        10.367
       7723.5       10.3656
         7724       10.3643
       7724.5       10.3629
         7725       10.3616
       7725.5       10.3602
         7726       10.3589
       7726.5       10.3575
         7727       10.3562
       7727.5       10.3548
         7728       10.3535
       7728.5       10.3522
         7729       10.3508
       7729.5       10.3495
         7730       10.3481
       7730.5       10.3468
         7731       10.3454
       7731.5       10.3441
         7732       10.3427
       7732.5       10.3414
         7733         10.34
       7733.5       10.3387
         7734       10.3374
       7734.5        10.336
         7735       10.3347
       7735.5       10.3333
         7736        10.332
       7736.5       10.3306
         7737       10.3293
       7737.5        10.328
         7738       10.3266
       7738.5       10.3253
         7739       10.3239
       7739.5       10.3226
         7740       10.3213
       7740.5       10.3199
         7741       10.3186
       7741.5       10.3172
         7742       10.3159
       7742.5       10.3146
         7743       10.3132
       7743.5       10.3119
         7744       10.3105
       7744.5       10.3092
         7745       10.3079
       7745.5       10.3065
         7746       10.3052
       7746.5       10.3038
         7747       10.3025
       7747.5       10.3012
         7748       10.2998
       7748.5       10.2985
         7749       10.2972
       7749.5       10.2958
         7750       10.2945
       7750.5       10.2931
         7751       10.2918
       7751.5       10.2905
         7752       10.2891
       7752.5       10.2878
         7753       10.2865
       7753.5       10.2851
         7754       10.2838
       7754.5       10.2825
         7755       10.2811
       7755.5       10.2798
         7756       10.2785
       7756.5       10.2771
         7757       10.2758
       7757.5       10.2745
         7758       10.2731
       7758.5       10.2718
         7759       10.2705
       7759.5       10.2691
         7760       10.2678
       7760.5       10.2665
         7761       10.2651
       7761.5       10.2638
         7762       10.2625
       7762.5       10.2611
         7763       10.2598
       7763.5       10.2585
         7764       10.2571
       7764.5       10.2558
         7765       10.2545
       7765.5       10.2531
         7766       10.2518
       7766.5       10.2505
         7767       10.2492
       7767.5       10.2478
         7768       10.2465
       7768.5       10.2452
         7769       10.2438
       7769.5       10.2425
         7770       10.2412
       7770.5       10.2399
         7771       10.2385
       7771.5       10.2372
         7772       10.2359
       7772.5       10.2346
         7773       10.2332
       7773.5       10.2319
         7774       10.2306
       7774.5       10.2292
         7775       10.2279
       7775.5       10.2266
         7776       10.2253
       7776.5       10.2239
         7777       10.2226
       7777.5       10.2213
         7778         10.22
       7778.5       10.2186
         7779       10.2173
       7779.5        10.216
         7780       10.2147
       7780.5       10.2133
         7781        10.212
       7781.5       10.2107
         7782       10.2094
       7782.5       10.2081
         7783       10.2067
       7783.5       10.2054
         7784       10.2041
       7784.5       10.2028
         7785       10.2014
       7785.5       10.2001
         7786       10.1988
       7786.5       10.1975
         7787       10.1962
       7787.5       10.1948
         7788       10.1935
       7788.5       10.1922
         7789       10.1909
       7789.5       10.1896
         7790       10.1882
       7790.5       10.1869
         7791       10.1856
       7791.5       10.1843
         7792        10.183
       7792.5       10.1817
         7793       10.1803
       7793.5        10.179
         7794       10.1777
       7794.5       10.1764
         7795       10.1751
       7795.5       10.1737
         7796       10.1724
       7796.5       10.1711
         7797       10.1698
       7797.5       10.1685
         7798       10.1672
       7798.5       10.1658
         7799       10.1645
       7799.5       10.1632
         7800       10.1619
       7800.5       10.1606
         7801       10.1593
       7801.5        10.158
         7802       10.1566
       7802.5       10.1553
         7803        10.154
       7803.5       10.1527
         7804       10.1514
       7804.5       10.1501
         7805       10.1488
       7805.5       10.1475
         7806       10.1461
       7806.5       10.1448
         7807       10.1435
       7807.5       10.1422
         7808       10.1409
       7808.5       10.1396
         7809       10.1383
       7809.5        10.137
         7810       10.1356
       7810.5       10.1343
         7811        10.133
       7811.5       10.1317
         7812       10.1304
       7812.5       10.1291
         7813       10.1278
       7813.5       10.1265
         7814       10.1252
       7814.5       10.1239
         7815       10.1226
       7815.5       10.1212
         7816       10.1199
       7816.5       10.1186
         7817       10.1173
       7817.5        10.116
         7818       10.1147
       7818.5       10.1134
         7819       10.1121
       7819.5       10.1108
         7820       10.1095
       7820.5       10.1082
         7821       10.1069
       7821.5       10.1056
         7822       10.1043
       7822.5       10.1029
         7823       10.1016
       7823.5       10.1003
         7824        10.099
       7824.5       10.0977
         7825       10.0964
       7825.5       10.0951
         7826       10.0938
       7826.5       10.0925
         7827       10.0912
       7827.5       10.0899
         7828       10.0886
       7828.5       10.0873
         7829        10.086
       7829.5       10.0847
         7830       10.0834
       7830.5       10.0821
         7831       10.0808
       7831.5       10.0795
         7832       10.0782
       7832.5       10.0769
         7833       10.0756
       7833.5       10.0743
         7834        10.073
       7834.5       10.0717
         7835       10.0704
       7835.5       10.0691
         7836       10.0678
       7836.5       10.0665
         7837       10.0652
       7837.5       10.0639
         7838       10.0626
       7838.5       10.0613
         7839         10.06
       7839.5       10.0587
         7840       10.0574
       7840.5       10.0561
         7841       10.0548
       7841.5       10.0535
         7842       10.0522
       7842.5       10.0509
         7843       10.0496
       7843.5       10.0483
         7844        10.047
       7844.5       10.0457
         7845       10.0444
       7845.5       10.0431
         7846       10.0418
       7846.5       10.0405
         7847       10.0392
       7847.5        10.038
         7848       10.0367
       7848.5       10.0354
         7849       10.0341
       7849.5       10.0328
         7850       10.0315
       7850.5       10.0302
         7851       10.0289
       7851.5       10.0276
         7852       10.0263
       7852.5        10.025
         7853       10.0237
       7853.5       10.0224
         7854       10.0211
       7854.5       10.0198
         7855       10.0186
       7855.5       10.0173
         7856        10.016
       7856.5       10.0147
         7857       10.0134
       7857.5       10.0121
         7858       10.0108
       7858.5       10.0095
         7859       10.0082
       7859.5       10.0069
         7860       10.0057
       7860.5       10.0044
         7861       10.0031
       7861.5       10.0018
         7862       10.0005
       7862.5       9.99921
         7863       9.99792
       7863.5       9.99663
         7864       9.99534
       7864.5       9.99405
         7865       9.99277
       7865.5       9.99148
         7866       9.99019
       7866.5       9.98891
         7867       9.98762
       7867.5       9.98633
         7868       9.98505
       7868.5       9.98376
         7869       9.98248
       7869.5       9.98119
         7870        9.9799
       7870.5       9.97862
         7871       9.97733
       7871.5       9.97605
         7872       9.97477
       7872.5       9.97348
         7873        9.9722
       7873.5       9.97091
         7874       9.96963
       7874.5       9.96835
         7875       9.96706
       7875.5       9.96578
         7876        9.9645
       7876.5       9.96321
         7877       9.96193
       7877.5       9.96065
         7878       9.95937
       7878.5       9.95809
         7879       9.95681
       7879.5       9.95552
         7880       9.95424
       7880.5       9.95296
         7881       9.95168
       7881.5        9.9504
         7882       9.94912
       7882.5       9.94784
         7883       9.94656
       7883.5       9.94528
         7884         9.944
       7884.5       9.94272
         7885       9.94144
       7885.5       9.94016
         7886       9.93889
       7886.5       9.93761
         7887       9.93633
       7887.5       9.93505
         7888       9.93377
       7888.5        9.9325
         7889       9.93122
       7889.5       9.92994
         7890       9.92866
       7890.5       9.92739
         7891       9.92611
       7891.5       9.92483
         7892       9.92356
       7892.5       9.92228
         7893       9.92101
       7893.5       9.91973
         7894       9.91846
       7894.5       9.91718
         7895       9.91591
       7895.5       9.91463
         7896       9.91336
       7896.5       9.91208
         7897       9.91081
       7897.5       9.90953
         7898       9.90826
       7898.5       9.90699
         7899       9.90571
       7899.5       9.90444
         7900       9.90317
       7900.5        9.9019
         7901       9.90062
       7901.5       9.89935
         7902       9.89808
       7902.5       9.89681
         7903       9.89554
       7903.5       9.89426
         7904       9.89299
       7904.5       9.89172
         7905       9.89045
       7905.5       9.88918
         7906       9.88791
       7906.5       9.88664
         7907       9.88537
       7907.5        9.8841
         7908       9.88283
       7908.5       9.88156
         7909       9.88029
       7909.5       9.87902
         7910       9.87776
       7910.5       9.87649
         7911       9.87522
       7911.5       9.87395
         7912       9.87268
       7912.5       9.87142
         7913       9.87015
       7913.5       9.86888
         7914       9.86761
       7914.5       9.86635
         7915       9.86508
       7915.5       9.86381
         7916       9.86255
       7916.5       9.86128
         7917       9.86002
       7917.5       9.85875
         7918       9.85748
       7918.5       9.85622
         7919       9.85495
       7919.5       9.85369
         7920       9.85242
       7920.5       9.85116
         7921        9.8499
       7921.5       9.84863
         7922       9.84737
       7922.5       9.84611
         7923       9.84484
       7923.5       9.84358
         7924       9.84232
       7924.5       9.84105
         7925       9.83979
       7925.5       9.83853
         7926       9.83727
       7926.5         9.836
         7927       9.83474
       7927.5       9.83348
         7928       9.83222
       7928.5       9.83096
         7929        9.8297
       7929.5       9.82844
         7930       9.82718
       7930.5       9.82592
         7931       9.82466
       7931.5        9.8234
         7932       9.82214
       7932.5       9.82088
         7933       9.81962
       7933.5       9.81836
         7934        9.8171
       7934.5       9.81584
         7935       9.81458
       7935.5       9.81333
         7936       9.81207
       7936.5       9.81081
         7937       9.80955
       7937.5       9.80829
         7938       9.80704
       7938.5       9.80578
         7939       9.80452
       7939.5       9.80327
         7940       9.80201
       7940.5       9.80075
         7941        9.7995
       7941.5       9.79824
         7942       9.79699
       7942.5       9.79573
         7943       9.79448
       7943.5       9.79322
         7944       9.79197
       7944.5       9.79071
         7945       9.78946
       7945.5        9.7882
         7946       9.78695
       7946.5        9.7857
         7947       9.78444
       7947.5       9.78319
         7948       9.78194
       7948.5       9.78068
         7949       9.77943
       7949.5       9.77818
         7950       9.77693
       7950.5       9.77567
         7951       9.77442
       7951.5       9.77317
         7952       9.77192
       7952.5       9.77067
         7953       9.76942
       7953.5       9.76817
         7954       9.76691
       7954.5       9.76566
         7955       9.76441
       7955.5       9.76316
         7956       9.76191
       7956.5       9.76066
         7957       9.75941
       7957.5       9.75817
         7958       9.75692
       7958.5       9.75567
         7959       9.75442
       7959.5       9.75317
         7960       9.75192
       7960.5       9.75067
         7961       9.74943
       7961.5       9.74818
         7962       9.74693
       7962.5       9.74568
         7963       9.74444
       7963.5       9.74319
         7964       9.74194
       7964.5        9.7407
         7965       9.73945
       7965.5       9.73821
         7966       9.73696
       7966.5       9.73571
         7967       9.73447
       7967.5       9.73322
         7968       9.73198
       7968.5       9.73073
         7969       9.72949
       7969.5       9.72824
         7970         9.727
       7970.5       9.72576
         7971       9.72451
       7971.5       9.72327
         7972       9.72203
       7972.5       9.72078
         7973       9.71954
       7973.5        9.7183
         7974       9.71705
       7974.5       9.71581
         7975       9.71457
       7975.5       9.71333
         7976       9.71209
       7976.5       9.71084
         7977        9.7096
       7977.5       9.70836
         7978       9.70712
       7978.5       9.70588
         7979       9.70464
       7979.5        9.7034
         7980       9.70216
       7980.5       9.70092
         7981       9.69968
       7981.5       9.69844
         7982        9.6972
       7982.5       9.69596
         7983       9.69472
       7983.5       9.69348
         7984       9.69224
       7984.5       9.69101
         7985       9.68977
       7985.5       9.68853
         7986       9.68729
       7986.5       9.68605
         7987       9.68482
       7987.5       9.68358
         7988       9.68234
       7988.5       9.68111
         7989       9.67987
       7989.5       9.67863
         7990        9.6774
       7990.5       9.67616
         7991       9.67493
       7991.5       9.67369
         7992       9.67245
       7992.5       9.67122
         7993       9.66998
       7993.5       9.66875
         7994       9.66751
       7994.5       9.66628
         7995       9.66505
       7995.5       9.66381
         7996       9.66258
       7996.5       9.66134
         7997       9.66011
       7997.5       9.65888
         7998       9.65765
       7998.5       9.65641
         7999       9.65518
       7999.5       9.65395
         8000       9.65272
       8000.5       9.65148
         8001       9.65025
       8001.5       9.64902
         8002       9.64779
       8002.5       9.64656
         8003       9.64533
       8003.5        9.6441
         8004       9.64287
       8004.5       9.64163
         8005        9.6404
       8005.5       9.63917
         8006       9.63794
       8006.5       9.63672
         8007       9.63549
       8007.5       9.63426
         8008       9.63303
       8008.5        9.6318
         8009       9.63057
       8009.5       9.62934
         8010       9.62811
       8010.5       9.62689
         8011       9.62566
       8011.5       9.62443
         8012        9.6232
       8012.5       9.62198
         8013       9.62075
       8013.5       9.61952
         8014        9.6183
       8014.5       9.61707
         8015       9.61584
       8015.5       9.61462
         8016       9.61339
       8016.5       9.61217
         8017       9.61094
       8017.5       9.60971
         8018       9.60849
       8018.5       9.60726
         8019       9.60604
       8019.5       9.60482
         8020       9.60359
       8020.5       9.60237
         8021       9.60114
       8021.5       9.59992
         8022        9.5987
       8022.5       9.59747
         8023       9.59625
       8023.5       9.59503
         8024        9.5938
       8024.5       9.59258
         8025       9.59136
       8025.5       9.59014
         8026       9.58892
       8026.5       9.58769
         8027       9.58647
       8027.5       9.58525
         8028       9.58403
       8028.5       9.58281
         8029       9.58159
       8029.5       9.58037
         8030       9.57915
       8030.5       9.57793
         8031       9.57671
       8031.5       9.57549
         8032       9.57427
       8032.5       9.57305
         8033       9.57183
       8033.5       9.57061
         8034       9.56939