# Probe 0 (0.05 0.05 0.005)
#       Probe             0
#        Time
       7500.5   0.000447677
         7501   0.000447618
       7501.5   0.000447558
         7502   0.000447499
       7502.5    0.00044744
         7503   0.000447381
       7503.5   0.000447322
         7504   0.000447263
       7504.5   0.000447204
         7505   0.000447145
       7505.5   0.000447086
         7506   0.000447027
       7506.5   0.000446968
         7507   0.000446909
       7507.5    0.00044685
         7508   0.000446791
       7508.5   0.000446732
         7509   0.000446673
       7509.5   0.000446614
         7510   0.000446555
       7510.5   0.000446496
         7511   0.000446437
       7511.5   0.000446378
         7512   0.000446319
       7512.5   0.000446261
         7513   0.000446202
       7513.5   0.000446143
         7514   0.000446084
       7514.5   0.000446025
         7515   0.000445966
       7515.5   0.000445907
         7516   0.000445849
       7516.5    0.00044579
         7517   0.000445731
       7517.5   0.000445672
         7518   0.000445613
       7518.5   0.000445555
         7519   0.000445496
       7519.5   0.000445437
         7520   0.000445378
       7520.5    0.00044532
         7521   0.000445261
       7521.5   0.000445202
         7522   0.000445144
       7522.5   0.000445085
         7523   0.000445026
       7523.5   0.000444967
         7524   0.000444909
       7524.5    0.00044485
         7525   0.000444791
       7525.5   0.000444733
         7526   0.000444674
       7526.5   0.000444616
         7527   0.000444557
       7527.5   0.000444498
         7528    0.00044444
       7528.5   0.000444381
         7529   0.000444323
       7529.5   0.000444264
         7530   0.000444206
       7530.5   0.000444147
         7531   0.000444088
       7531.5    0.00044403
         7532   0.000443971
       7532.5   0.000443913
         7533   0.000443854
       7533.5   0.000443796
         7534   0.000443738
       7534.5   0.000443679
         7535   0.000443621
       7535.5   0.000443562
         7536   0.000443504
       7536.5   0.000443445
         7537   0.000443387
       7537.5   0.000443328
         7538    0.00044327
       7538.5   0.000443212
         7539   0.000443153
       7539.5   0.000443095
         7540   0.000443037
       7540.5   0.000442978
         7541    0.00044292
       7541.5   0.000442862
         7542   0.000442803
       7542.5   0.000442745
         7543   0.000442687
       7543.5   0.000442628
         7544    0.00044257
       7544.5   0.000442512
         7545   0.000442454
       7545.5   0.000442395
         7546   0.000442337
       7546.5   0.000442279
         7547   0.000442221
       7547.5   0.000442162
         7548   0.000442104
       7548.5   0.000442046
         7549   0.000441988
       7549.5    0.00044193
         7550   0.000441872
       7550.5   0.000441813
         7551   0.000441755
       7551.5   0.000441697
         7552   0.000441639
       7552.5   0.000441581
         7553   0.000441523
       7553.5   0.000441465
         7554   0.000441407
       7554.5   0.000441348
         7555    0.00044129
       7555.5   0.000441232
         7556   0.000441174
       7556.5   0.000441116
         7557   0.000441058
       7557.5      0.000441
         7558   0.000440942
       7558.5   0.000440884
         7559   0.000440826
       7559.5   0.000440768
         7560    0.00044071
       7560.5   0.000440652
         7561   0.000440594
       7561.5   0.000440536
         7562   0.000440478
       7562.5   0.000440421
         7563   0.000440363
       7563.5   0.000440305
         7564   0.000440247
       7564.5   0.000440189
         7565   0.000440131
       7565.5   0.000440073
         7566   0.000440015
       7566.5   0.000439958
         7567     0.0004399
       7567.5   0.000439842
         7568   0.000439784
       7568.5   0.000439726
         7569   0.000439668
       7569.5   0.000439611
         7570   0.000439553
       7570.5   0.000439495
         7571   0.000439437
       7571.5    0.00043938
         7572   0.000439322
       7572.5   0.000439264
         7573   0.000439206
       7573.5   0.000439149
         7574   0.000439091
       7574.5   0.000439033
         7575   0.000438976
       7575.5   0.000438918
         7576    0.00043886
       7576.5   0.000438803
         7577   0.000438745
       7577.5   0.000438687
         7578    0.00043863
       7578.5   0.000438572
         7579   0.000438514
       7579.5   0.000438457
         7580   0.000438399
       7580.5   0.000438342
         7581   0.000438284
       7581.5   0.000438227
         7582   0.000438169
       7582.5   0.000438112
         7583   0.000438054
       7583.5   0.000437996
         7584   0.000437939
       7584.5   0.000437881
         7585   0.000437824
       7585.5   0.000437766
         7586   0.000437709
       7586.5   0.000437652
         7587   0.000437594
       7587.5   0.000437537
         7588   0.000437479
       7588.5   0.000437422
         7589   0.000437364
       7589.5   0.000437307
         7590    0.00043725
       7590.5   0.000437192
         7591   0.000437135
       7591.5   0.000437077
         7592    0.00043702
       7592.5   0.000436963
         7593   0.000436905
       7593.5   0.000436848
         7594   0.000436791
       7594.5   0.000436733
         7595   0.000436676
       7595.5   0.000436619
         7596   0.000436561
       7596.5   0.000436504
         7597   0.000436447
       7597.5    0.00043639
         7598   0.000436332
       7598.5   0.000436275
         7599   0.000436218
       7599.5   0.000436161
         7600   0.000436104
       7600.5   0.000436046
         7601   0.000435989
       7601.5   0.000435932
         7602   0.000435875
       7602.5   0.000435818
         7603   0.000435761
       7603.5   0.000435703
         7604   0.000435646
       7604.5   0.000435589
         7605   0.000435532
       7605.5   0.000435475
         7606   0.000435418
       7606.5   0.000435361
         7607   0.000435304
       7607.5   0.000435247
         7608   0.000435189
       7608.5   0.000435132
         7609   0.000435075
       7609.5   0.000435018
         7610   0.000434961
       7610.5   0.000434904
         7611   0.000434847
       7611.5    0.00043479
         7612   0.000434733
       7612.5   0.000434676
         7613   0.000434619
       7613.5   0.000434562
         7614   0.000434506
       7614.5   0.000434449
         7615   0.000434392
       7615.5   0.000434335
         7616   0.000434278
       7616.5   0.000434221
         7617   0.000434164
       7617.5   0.000434107
         7618    0.00043405
       7618.5   0.000433993
         7619   0.000433937
       7619.5    0.00043388
         7620   0.000433823
       7620.5   0.000433766
         7621   0.000433709
       7621.5   0.000433652
         7622   0.000433596
       7622.5   0.000433539
         7623   0.000433482
       7623.5   0.000433425
         7624   0.000433369
       7624.5   0.000433312
         7625   0.000433255
       7625.5   0.000433198
         7626   0.000433142
       7626.5   0.000433085
         7627   0.000433028
       7627.5   0.000432972
         7628   0.000432915
       7628.5   0.000432858
         7629   0.000432802
       7629.5   0.000432745
         7630   0.000432688
       7630.5   0.000432632
         7631   0.000432575
       7631.5   0.000432518
         7632   0.000432462
       7632.5   0.000432405
         7633   0.000432349
       7633.5   0.000432292
         7634   0.000432235
       7634.5   0.000432179
         7635   0.000432122
       7635.5   0.000432066
         7636   0.000432009
       7636.5   0.000431953
         7637   0.000431896
       7637.5    0.00043184
         7638   0.000431783
       7638.5   0.000431727
         7639    0.00043167
       7639.5   0.000431614
         7640   0.000431557
       7640.5   0.000431501
         7641   0.000431444
       7641.5   0.000431388
         7642   0.000431332
       7642.5   0.000431275
         7643   0.000431219
       7643.5   0.000431162
         7644   0.000431106
       7644.5    0.00043105
         7645   0.000430993
       7645.5   0.000430937
         7646   0.000430881
       7646.5   0.000430824
         7647   0.000430768
       7647.5   0.000430712
         7648   0.000430655
       7648.5   0.000430599
         7649   0.000430543
       7649.5   0.000430486
         7650    0.00043043
       7650.5   0.000430374
         7651   0.000430318
       7651.5   0.000430261
         7652   0.000430205
       7652.5   0.000430149
         7653   0.000430093
       7653.5   0.000430036
         7654    0.00042998
       7654.5   0.000429924
         7655   0.000429868
       7655.5   0.000429812
         7656   0.000429756
       7656.5   0.000429699
         7657   0.000429643
       7657.5   0.000429587
         7658   0.000429531
       7658.5   0.000429475
         7659   0.000429419
       7659.5   0.000429363
         7660   0.000429307
       7660.5    0.00042925
         7661   0.000429194
       7661.5   0.000429138
         7662   0.000429082
       7662.5   0.000429026
         7663    0.00042897
       7663.5   0.000428914
         7664   0.000428858
       7664.5   0.000428802
         7665   0.000428746
       7665.5    0.00042869
         7666   0.000428634
       7666.5   0.000428578
         7667   0.000428522
       7667.5   0.000428466
         7668    0.00042841
       7668.5   0.000428354
         7669   0.000428299
       7669.5   0.000428243
         7670   0.000428187
       7670.5   0.000428131
         7671   0.000428075
       7671.5   0.000428019
         7672   0.000427963
       7672.5   0.000427907
         7673   0.000427852
       7673.5   0.000427796
         7674    0.00042774
       7674.5   0.000427684
         7675   0.000427628
       7675.5   0.000427572
         7676   0.000427517
       7676.5   0.000427461
         7677   0.000427405
       7677.5   0.000427349
         7678   0.000427294
       7678.5   0.000427238
         7679   0.000427182
       7679.5   0.000427126
         7680   0.000427071
       7680.5   0.000427015
         7681   0.000426959
       7681.5   0.000426904
         7682   0.000426848
       7682.5   0.000426792
         7683   0.000426736
       7683.5   0.000426681
         7684   0.000426625
       7684.5    0.00042657
         7685   0.000426514
       7685.5   0.000426458
         7686   0.000426403
       7686.5   0.000426347
         7687   0.000426291
       7687.5   0.000426236
         7688    0.00042618
       7688.5   0.000426125
         7689   0.000426069
       7689.5   0.000426014
         7690   0.000425958
       7690.5   0.000425903
         7691   0.000425847
       7691.5   0.000425792
         7692   0.000425736
       7692.5   0.000425681
         7693   0.000425625
       7693.5    0.00042557
         7694   0.000425514
       7694.5   0.000425459
         7695   0.000425403
       7695.5   0.000425348
         7696   0.000425292
       7696.5   0.000425237
         7697   0.000425182
       7697.5   0.000425126
         7698   0.000425071
       7698.5   0.000425015
         7699    0.00042496
       7699.5   0.000424905
         7700   0.000424849
       7700.5   0.000424794
         7701   0.000424739
       7701.5   0.000424683
         7702   0.000424628
       7702.5   0.000424573
         7703   0.000424517
       7703.5   0.000424462
         7704   0.000424407
       7704.5   0.000424352
         7705   0.000424296
       7705.5   0.000424241
         7706   0.000424186
       7706.5   0.000424131
         7707   0.000424075
       7707.5    0.00042402
         7708   0.000423965
       7708.5    0.00042391
         7709   0.000423854
       7709.5   0.000423799
         7710   0.000423744
       7710.5   0.000423689
         7711   0.000423634
       7711.5   0.000423579
         7712   0.000423524
       7712.5   0.000423468
         7713   0.000423413
       7713.5   0.000423358
         7714   0.000423303
       7714.5   0.000423248
         7715   0.000423193
       7715.5   0.000423138
         7716   0.000423083
       7716.5   0.000423028
         7717   0.000422973
       7717.5   0.000422918
         7718   0.000422863
       7718.5   0.000422808
         7719   0.000422753
       7719.5   0.000422698
         7720   0.000422643
       7720.5   0.000422588
         7721   0.000422533
       7721.5   0.000422478
         7722   0.000422423
       7722.5   0.000422368
         7723   0.000422313
       7723.5   0.000422258
         7724   0.000422203
       7724.5   0.000422148
         7725   0.000422093
       7725.5   0.000422038
         7726   0.000421983
       7726.5   0.000421929
         7727   0.000421874
       7727.5   0.000421819
         7728   0.000421764
       7728.5   0.000421709
         7729   0.000421654
       7729.5   0.000421599
         7730   0.000421545
       7730.5    0.00042149
         7731   0.000421435
       7731.5    0.00042138
         7732   0.000421325
       7732.5   0.000421271
         7733   0.000421216
       7733.5   0.000421161
         7734   0.000421106
       7734.5   0.000421052
         7735   0.000420997
       7735.5   0.000420942
         7736   0.000420888
       7736.5   0.000420833
         7737   0.000420778
       7737.5   0.000420724
         7738   0.000420669
       7738.5   0.000420614
         7739    0.00042056
       7739.5   0.000420505
         7740    0.00042045
       7740.5   0.000420396
         7741   0.000420341
       7741.5   0.000420286
         7742   0.000420232
       7742.5   0.000420177
         7743   0.000420123
       7743.5   0.000420068
         7744   0.000420014
       7744.5   0.000419959
         7745   0.000419904
       7745.5    0.00041985
         7746   0.000419795
       7746.5   0.000419741
         7747   0.000419686
       7747.5   0.000419632
         7748   0.000419577
       7748.5   0.000419523
         7749   0.000419468
       7749.5   0.000419414
         7750    0.00041936
       7750.5   0.000419305
         7751   0.000419251
       7751.5   0.000419196
         7752   0.000419142
       7752.5   0.000419087
         7753   0.000419033
       7753.5   0.000418979
         7754   0.000418924
       7754.5    0.00041887
         7755   0.000418815
       7755.5   0.000418761
         7756   0.000418707
       7756.5   0.000418652
         7757   0.000418598
       7757.5   0.000418544
         7758   0.000418489
       7758.5   0.000418435
         7759   0.000418381
       7759.5   0.000418327
         7760   0.000418272
       7760.5   0.000418218
         7761   0.000418164
       7761.5    0.00041811
         7762   0.000418055
       7762.5   0.000418001
         7763   0.000417947
       7763.5   0.000417893
         7764   0.000417838
       7764.5   0.000417784
         7765    0.00041773
       7765.5   0.000417676
         7766   0.000417622
       7766.5   0.000417568
         7767   0.000417513
       7767.5   0.000417459
         7768   0.000417405
       7768.5   0.000417351
         7769   0.000417297
       7769.5   0.000417243
         7770   0.000417189
       7770.5   0.000417135
         7771   0.000417081
       7771.5   0.000417026
         7772   0.000416972
       7772.5   0.000416918
         7773   0.000416864
       7773.5    0.00041681
         7774   0.000416756
       7774.5   0.000416702
         7775   0.000416648
       7775.5   0.000416594
         7776    0.00041654
       7776.5   0.000416486
         7777   0.000416432
       7777.5   0.000416378
         7778   0.000416324
       7778.5    0.00041627
         7779   0.000416216
       7779.5   0.000416163
         7780   0.000416109
       7780.5   0.000416055
         7781   0.000416001
       7781.5   0.000415947
         7782   0.000415893
       7782.5   0.000415839
         7783   0.000415785
       7783.5   0.000415731
         7784   0.000415678
       7784.5   0.000415624
         7785    0.00041557
       7785.5   0.000415516
         7786   0.000415462
       7786.5   0.000415408
         7787   0.000415355
       7787.5   0.000415301
         7788   0.000415247
       7788.5   0.000415193
         7789    0.00041514
       7789.5   0.000415086
         7790   0.000415032
       7790.5   0.000414978
         7791   0.000414925
       7791.5   0.000414871
         7792   0.000414817
       7792.5   0.000414763
         7793    0.00041471
       7793.5   0.000414656
         7794   0.000414602
       7794.5   0.000414549
         7795   0.000414495
       7795.5   0.000414441
         7796   0.000414388
       7796.5   0.000414334
         7797   0.000414281
       7797.5   0.000414227
         7798   0.000414173
       7798.5    0.00041412
         7799   0.000414066
       7799.5   0.000414013
         7800   0.000413959
       7800.5   0.000413905
         7801   0.000413852
       7801.5   0.000413798
         7802   0.000413745
       7802.5   0.000413691
         7803   0.000413638
       7803.5   0.000413584
         7804   0.000413531
       7804.5   0.000413477
         7805   0.000413424
       7805.5    0.00041337
         7806   0.000413317
       7806.5   0.000413263
         7807    0.00041321
       7807.5   0.000413156
         7808   0.000413103
       7808.5    0.00041305
         7809   0.000412996
       7809.5   0.000412943
         7810   0.000412889
       7810.5   0.000412836
         7811   0.000412783
       7811.5   0.000412729
         7812   0.000412676
       7812.5   0.000412623
         7813   0.000412569
       7813.5   0.000412516
         7814   0.000412463
       7814.5   0.000412409
         7815   0.000412356
       7815.5   0.000412303
         7816   0.000412249
       7816.5   0.000412196
         7817   0.000412143
       7817.5    0.00041209
         7818   0.000412036
       7818.5   0.000411983
         7819    0.00041193
       7819.5   0.000411877
         7820   0.000411823
       7820.5    0.00041177
         7821   0.000411717
       7821.5   0.000411664
         7822   0.000411611
       7822.5   0.000411557
         7823   0.000411504
       7823.5   0.000411451
         7824   0.000411398
       7824.5   0.000411345
         7825   0.000411292
       7825.5   0.000411239
         7826   0.000411185
       7826.5   0.000411132
         7827   0.000411079
       7827.5   0.000411026
         7828   0.000410973
       7828.5    0.00041092
         7829   0.000410867
       7829.5   0.000410814
         7830   0.000410761
       7830.5   0.000410708
         7831   0.000410655
       7831.5   0.000410602
         7832   0.000410549
       7832.5   0.000410496
         7833   0.000410443
       7833.5    0.00041039
         7834   0.000410337
       7834.5   0.000410284
         7835   0.000410231
       7835.5   0.000410178
         7836   0.000410125
       7836.5   0.000410072
         7837   0.000410019
       7837.5   0.000409966
         7838   0.000409913
       7838.5    0.00040986
         7839   0.000409807
       7839.5   0.000409755
         7840   0.000409702
       7840.5   0.000409649
         7841   0.000409596
       7841.5   0.000409543
         7842    0.00040949
       7842.5   0.000409437
         7843   0.000409385
       7843.5   0.000409332
         7844   0.000409279
       7844.5   0.000409226
         7845   0.000409173
       7845.5   0.000409121
         7846   0.000409068
       7846.5   0.000409015
         7847   0.000408962
       7847.5    0.00040891
         7848   0.000408857
       7848.5   0.000408804
         7849   0.000408751
       7849.5   0.000408699
         7850   0.000408646
       7850.5   0.000408593
         7851   0.000408541
       7851.5   0.000408488
         7852   0.000408435
       7852.5   0.000408383
         7853    0.00040833
       7853.5   0.000408277
         7854   0.000408225
       7854.5   0.000408172
         7855   0.000408119
       7855.5   0.000408067
         7856   0.000408014
       7856.5   0.000407962
         7857   0.000407909
       7857.5   0.000407857
         7858   0.000407804
       7858.5   0.000407751
         7859   0.000407699
       7859.5   0.000407646
         7860   0.000407594
       7860.5   0.000407541
         7861   0.000407489
       7861.5   0.000407436
         7862   0.000407384
       7862.5   0.000407331
         7863   0.000407279
       7863.5   0.000407226
         7864   0.000407174
       7864.5   0.000407121
         7865   0.000407069
       7865.5   0.000407017
         7866   0.000406964
       7866.5   0.000406912
         7867   0.000406859
       7867.5   0.000406807
         7868   0.000406754
       7868.5   0.000406702
         7869    0.00040665
       7869.5   0.000406597
         7870   0.000406545
       7870.5   0.000406493
         7871    0.00040644
       7871.5   0.000406388
         7872   0.000406336
       7872.5   0.000406283
         7873   0.000406231
       7873.5   0.000406179
         7874   0.000406126
       7874.5   0.000406074
         7875   0.000406022
       7875.5    0.00040597
         7876   0.000405917
       7876.5   0.000405865
         7877   0.000405813
       7877.5   0.000405761
         7878   0.000405708
       7878.5   0.000405656
         7879   0.000405604
       7879.5   0.000405552
         7880     0.0004055
       7880.5   0.000405447
         7881   0.000405395
       7881.5   0.000405343
         7882   0.000405291
       7882.5   0.000405239
         7883   0.000405187
       7883.5   0.000405135
         7884   0.000405082
       7884.5    0.00040503
         7885   0.000404978
       7885.5   0.000404926
         7886   0.000404874
       7886.5   0.000404822
         7887    0.00040477
       7887.5   0.000404718
         7888   0.000404666
       7888.5   0.000404614
         7889   0.000404562
       7889.5    0.00040451
         7890   0.000404458
       7890.5   0.000404406
         7891   0.000404354
       7891.5   0.000404302
         7892    0.00040425
       7892.5   0.000404198
         7893   0.000404146
       7893.5   0.000404094
         7894   0.000404042
       7894.5    0.00040399
         7895   0.000403938
       7895.5   0.000403886
         7896   0.000403834
       7896.5   0.000403782
         7897    0.00040373
       7897.5   0.000403678
         7898   0.000403626
       7898.5   0.000403575
         7899   0.000403523
       7899.5   0.000403471
         7900   0.000403419
       7900.5   0.000403367
         7901   0.000403315
       7901.5   0.000403264
         7902   0.000403212
       7902.5    0.00040316
         7903   0.000403108
       7903.5   0.000403056
         7904   0.000403005
       7904.5   0.000402953
         7905   0.000402901
       7905.5   0.000402849
         7906   0.000402797
       7906.5   0.000402746
         7907   0.000402694
       7907.5   0.000402642
         7908   0.000402591
       7908.5   0.000402539
         7909   0.000402487
       7909.5   0.000402435
         7910   0.000402384
       7910.5   0.000402332
         7911    0.00040228
       7911.5   0.000402229
         7912   0.000402177
       7912.5   0.000402126
         7913   0.000402074
       7913.5   0.000402022
         7914   0.000401971
       7914.5   0.000401919
         7915   0.000401867
       7915.5   0.000401816
         7916   0.000401764
       7916.5   0.000401713
         7917   0.000401661
       7917.5    0.00040161
         7918   0.000401558
       7918.5   0.000401507
         7919   0.000401455
       7919.5   0.000401403
         7920   0.000401352
       7920.5     0.0004013
         7921   0.000401249
       7921.5   0.000401197
         7922   0.000401146
       7922.5   0.000401094
         7923   0.000401043
       7923.5   0.000400992
         7924    0.00040094
       7924.5   0.000400889
         7925   0.000400837
       7925.5   0.000400786
         7926   0.000400734
       7926.5   0.000400683
         7927   0.000400632
       7927.5    0.00040058
         7928   0.000400529
       7928.5   0.000400477
         7929   0.000400426
       7929.5   0.000400375
         7930   0.000400323
       7930.5   0.000400272
         7931   0.000400221
       7931.5   0.000400169
         7932   0.000400118
       7932.5   0.000400067
         7933   0.000400016
       7933.5   0.000399964
         7934   0.000399913
       7934.5   0.000399862
         7935    0.00039981
       7935.5   0.000399759
         7936   0.000399708
       7936.5   0.000399657
         7937   0.000399605
       7937.5   0.000399554
         7938   0.000399503
       7938.5   0.000399452
         7939   0.000399401
       7939.5   0.000399349
         7940   0.000399298
       7940.5   0.000399247
         7941   0.000399196
       7941.5   0.000399145
         7942   0.000399094
       7942.5   0.000399042
         7943   0.000398991
       7943.5    0.00039894
         7944   0.000398889
       7944.5   0.000398838
         7945   0.000398787
       7945.5   0.000398736
         7946   0.000398685
       7946.5   0.000398634
         7947   0.000398583
       7947.5   0.000398532
         7948    0.00039848
       7948.5   0.000398429
         7949   0.000398378
       7949.5   0.000398327
         7950   0.000398276
       7950.5   0.000398225
         7951   0.000398174
       7951.5   0.000398123
         7952   0.000398072
       7952.5   0.000398021
         7953    0.00039797
       7953.5    0.00039792
         7954   0.000397869
       7954.5   0.000397818
         7955   0.000397767
       7955.5   0.000397716
         7956   0.000397665
       7956.5   0.000397614
         7957   0.000397563
       7957.5   0.000397512
         7958   0.000397461
       7958.5    0.00039741
         7959    0.00039736
       7959.5   0.000397309
         7960   0.000397258
       7960.5   0.000397207
         7961   0.000397156
       7961.5   0.000397105
         7962   0.000397055
       7962.5   0.000397004
         7963   0.000396953
       7963.5   0.000396902
         7964   0.000396851
       7964.5   0.000396801
         7965    0.00039675
       7965.5   0.000396699
         7966   0.000396648
       7966.5   0.000396598
         7967   0.000396547
       7967.5   0.000396496
         7968   0.000396445
       7968.5   0.000396395
         7969   0.000396344
       7969.5   0.000396293
         7970   0.000396243
       7970.5   0.000396192
         7971   0.000396141
       7971.5   0.000396091
         7972    0.00039604
       7972.5   0.000395989
         7973   0.000395939
       7973.5   0.000395888
         7974   0.000395837
       7974.5   0.000395787
         7975   0.000395736
       7975.5   0.000395686
         7976   0.000395635
       7976.5   0.000395584
         7977   0.000395534
       7977.5   0.000395483
         7978   0.000395433
       7978.5   0.000395382
         7979   0.000395332
       7979.5   0.000395281
         7980   0.000395231
       7980.5    0.00039518
         7981    0.00039513
       7981.5   0.000395079
         7982   0.000395029
       7982.5   0.000394978
         7983   0.000394928
       7983.5   0.000394877
         7984   0.000394827
       7984.5   0.000394776
         7985   0.000394726
       7985.5   0.000394675
         7986   0.000394625
       7986.5   0.000394575
         7987   0.000394524
       7987.5   0.000394474
         7988   0.000394423
       7988.5   0.000394373
         7989   0.000394323
       7989.5   0.000394272
         7990   0.000394222
       7990.5   0.000394172
         7991   0.000394121
       7991.5   0.000394071
         7992   0.000394021
       7992.5    0.00039397
         7993    0.00039392
       7993.5    0.00039387
         7994   0.000393819
       7994.5   0.000393769
         7995   0.000393719
       7995.5   0.000393669
         7996   0.000393618
       7996.5   0.000393568
         7997   0.000393518
       7997.5   0.000393468
         7998   0.000393417
       7998.5   0.000393367
         7999   0.000393317
       7999.5   0.000393267
         8000   0.000393217
       8000.5   0.000393166
         8001   0.000393116
       8001.5   0.000393066
         8002   0.000393016
       8002.5   0.000392966
         8003   0.000392916
       8003.5   0.000392865
         8004   0.000392815
       8004.5   0.000392765
         8005   0.000392715
       8005.5   0.000392665
         8006   0.000392615
       8006.5   0.000392565
         8007   0.000392515
       8007.5   0.000392465
         8008   0.000392414
       8008.5   0.000392364
         8009   0.000392314
       8009.5   0.000392264
         8010   0.000392214
       8010.5   0.000392164
         8011   0.000392114
       8011.5   0.000392064
         8012   0.000392014
       8012.5   0.000391964
         8013   0.000391914
       8013.5   0.000391864
         8014   0.000391814
       8014.5   0.000391764
         8015   0.000391714
       8015.5   0.000391665
         8016   0.000391615
       8016.5   0.000391565
         8017   0.000391515
       8017.5   0.000391465
         8018   0.000391415
       8018.5   0.000391365
         8019   0.000391315
       8019.5   0.000391265
         8020   0.000391215
       8020.5   0.000391166
         8021   0.000391116
       8021.5   0.000391066
         8022   0.000391016
       8022.5   0.000390966
         8023   0.000390916
       8023.5   0.000390867
         8024   0.000390817
       8024.5   0.000390767
         8025   0.000390717
       8025.5   0.000390667
         8026   0.000390618
       8026.5   0.000390568
         8027   0.000390518
       8027.5   0.000390468
         8028   0.000390419
       8028.5   0.000390369
         8029   0.000390319
       8029.5   0.000390269
         8030    0.00039022
       8030.5    0.00039017
         8031    0.00039012
       8031.5   0.000390071
         8032   0.000390021
       8032.5   0.000389971
         8033   0.000389922
       8033.5   0.000389872
         8034   0.000389822