# Probe 0 (0.05 0.05 0.005)
#       Probe             0
#        Time
       7500.5       11.9896
         7501       11.9882
       7501.5       11.9867
         7502       11.9853
       7502.5       11.9838
         7503       11.9824
       7503.5       11.9809
         7504       11.9795
       7504.5        11.978
         7505       11.9766
       7505.5       11.9751
         7506       11.9737
       7506.5       11.9722
         7507       11.9708
       7507.5       11.9693
         7508       11.9679
       7508.5       11.9664
         7509        11.965
       7509.5       11.9635
         7510       11.9621
       7510.5       11.9606
         7511       11.9592
       7511.5       11.9577
         7512       11.9563
       7512.5       11.9548
         7513       11.9534
       7513.5        11.952
         7514       11.9505
       7514.5       11.9491
         7515       11.9476
       7515.5       11.9462
         7516       11.9447
       7516.5       11.9433
         7517       11.9418
       7517.5       11.9404
         7518        11.939
       7518.5       11.9375
         7519       11.9361
       7519.5       11.9346
         7520       11.9332
       7520.5       11.9317
         7521       11.9303
       7521.5       11.9289
         7522       11.9274
       7522.5        11.926
         7523       11.9245
       7523.5       11.9231
         7524       11.9217
       7524.5       11.9202
         7525       11.9188
       7525.5       11.9173
         7526       11.9159
       7526.5       11.9145
         7527        11.913
       7527.5       11.9116
         7528       11.9101
       7528.5       11.9087
         7529       11.9073
       7529.5       11.9058
         7530       11.9044
       7530.5        11.903
         7531       11.9015
       7531.5       11.9001
         7532       11.8987
       7532.5       11.8972
         7533       11.8958
       7533.5       11.8943
         7534       11.8929
       7534.5       11.8915
         7535         11.89
       7535.5       11.8886
         7536       11.8872
       7536.5       11.8857
         7537       11.8843
       7537.5       11.8829
         7538       11.8814
       7538.5         11.88
         7539       11.8786
       7539.5       11.8771
         7540       11.8757
       7540.5       11.8743
         7541       11.8728
       7541.5       11.8714
         7542         11.87
       7542.5       11.8685
         7543       11.8671
       7543.5       11.8657
         7544       11.8643
       7544.5       11.8628
         7545       11.8614
       7545.5         11.86
         7546       11.8585
       7546.5       11.8571
         7547       11.8557
       7547.5       11.8542
         7548       11.8528
       7548.5       11.8514
         7549         11.85
       7549.5       11.8485
         7550       11.8471
       7550.5       11.8457
         7551       11.8442
       7551.5       11.8428
         7552       11.8414
       7552.5         11.84
         7553       11.8385
       7553.5       11.8371
         7554       11.8357
       7554.5       11.8343
         7555       11.8328
       7555.5       11.8314
         7556         11.83
       7556.5       11.8286
         7557       11.8271
       7557.5       11.8257
         7558       11.8243
       7558.5       11.8229
         7559       11.8214
       7559.5         11.82
         7560       11.8186
       7560.5       11.8172
         7561       11.8158
       7561.5       11.8143
         7562       11.8129
       7562.5       11.8115
         7563       11.8101
       7563.5       11.8086
         7564       11.8072
       7564.5       11.8058
         7565       11.8044
       7565.5        11.803
         7566       11.8015
       7566.5       11.8001
         7567       11.7987
       7567.5       11.7973
         7568       11.7959
       7568.5       11.7944
         7569        11.793
       7569.5       11.7916
         7570       11.7902
       7570.5       11.7888
         7571       11.7873
       7571.5       11.7859
         7572       11.7845
       7572.5       11.7831
         7573       11.7817
       7573.5       11.7803
         7574       11.7788
       7574.5       11.7774
         7575        11.776
       7575.5       11.7746
         7576       11.7732
       7576.5       11.7718
         7577       11.7704
       7577.5       11.7689
         7578       11.7675
       7578.5       11.7661
         7579       11.7647
       7579.5       11.7633
         7580       11.7619
       7580.5       11.7605
         7581        11.759
       7581.5       11.7576
         7582       11.7562
       7582.5       11.7548
         7583       11.7534
       7583.5        11.752
         7584       11.7506
       7584.5       11.7492
         7585       11.7477
       7585.5       11.7463
         7586       11.7449
       7586.5       11.7435
         7587       11.7421
       7587.5       11.7407
         7588       11.7393
       7588.5       11.7379
         7589       11.7365
       7589.5       11.7351
         7590       11.7336
       7590.5       11.7322
         7591       11.7308
       7591.5       11.7294
         7592        11.728
       7592.5       11.7266
         7593       11.7252
       7593.5       11.7238
         7594       11.7224
       7594.5        11.721
         7595       11.7196
       7595.5       11.7182
         7596       11.7168
       7596.5       11.7153
         7597       11.7139
       7597.5       11.7125
         7598       11.7111
       7598.5       11.7097
         7599       11.7083
       7599.5       11.7069
         7600       11.7055
       7600.5       11.7041
         7601       11.7027
       7601.5       11.7013
         7602       11.6999
       7602.5       11.6985
         7603       11.6971
       7603.5       11.6957
         7604       11.6943
       7604.5       11.6929
         7605       11.6915
       7605.5       11.6901
         7606       11.6887
       7606.5       11.6873
         7607       11.6859
       7607.5       11.6845
         7608       11.6831
       7608.5       11.6817
         7609       11.6803
       7609.5       11.6789
         7610       11.6775
       7610.5       11.6761
         7611       11.6747
       7611.5       11.6733
         7612       11.6719
       7612.5       11.6705
         7613       11.6691
       7613.5       11.6677
         7614       11.6663
       7614.5       11.6649
         7615       11.6635
       7615.5       11.6621
         7616       11.6607
       7616.5       11.6593
         7617       11.6579
       7617.5       11.6565
         7618       11.6551
       7618.5       11.6537
         7619       11.6523
       7619.5       11.6509
         7620       11.6495
       7620.5       11.6481
         7621       11.6467
       7621.5       11.6453
         7622       11.6439
       7622.5       11.6426
         7623       11.6412
       7623.5       11.6398
         7624       11.6384
       7624.5        11.637
         7625       11.6356
       7625.5       11.6342
         7626       11.6328
       7626.5       11.6314
         7627         11.63
       7627.5       11.6286
         7628       11.6272
       7628.5       11.6258
         7629       11.6245
       7629.5       11.6231
         7630       11.6217
       7630.5       11.6203
         7631       11.6189
       7631.5       11.6175
         7632       11.6161
       7632.5       11.6147
         7633       11.6133
       7633.5       11.6119
         7634       11.6106
       7634.5       11.6092
         7635       11.6078
       7635.5       11.6064
         7636        11.605
       7636.5       11.6036
         7637       11.6022
       7637.5       11.6008
         7638       11.5995
       7638.5       11.5981
         7639       11.5967
       7639.5       11.5953
         7640       11.5939
       7640.5       11.5925
         7641       11.5911
       7641.5       11.5898
         7642       11.5884
       7642.5        11.587
         7643       11.5856
       7643.5       11.5842
         7644       11.5828
       7644.5       11.5814
         7645       11.5801
       7645.5       11.5787
         7646       11.5773
       7646.5       11.5759
         7647       11.5745
       7647.5       11.5731
         7648       11.5718
       7648.5       11.5704
         7649        11.569
       7649.5       11.5676
         7650       11.5662
       7650.5       11.5649
         7651       11.5635
       7651.5       11.5621
         7652       11.5607
       7652.5       11.5593
         7653        11.558
       7653.5       11.5566
         7654       11.5552
       7654.5       11.5538
         7655       11.5524
       7655.5       11.5511
         7656       11.5497
       7656.5       11.5483
         7657       11.5469
       7657.5       11.5455
         7658       11.5442
       7658.5       11.5428
         7659       11.5414
       7659.5         11.54
         7660       11.5387
       7660.5       11.5373
         7661       11.5359
       7661.5       11.5345
         7662       11.5332
       7662.5       11.5318
         7663       11.5304
       7663.5        11.529
         7664       11.5277
       7664.5       11.5263
         7665       11.5249
       7665.5       11.5235
         7666       11.5222
       7666.5       11.5208
         7667       11.5194
       7667.5        11.518
         7668       11.5167
       7668.5       11.5153
         7669       11.5139
       7669.5       11.5125
         7670       11.5112
       7670.5       11.5098
         7671       11.5084
       7671.5       11.5071
         7672       11.5057
       7672.5       11.5043
         7673       11.5029
       7673.5       11.5016
         7674       11.5002
       7674.5       11.4988
         7675       11.4975
       7675.5       11.4961
         7676       11.4947
       7676.5       11.4933
         7677        11.492
       7677.5       11.4906
         7678       11.4892
       7678.5       11.4879
         7679       11.4865
       7679.5       11.4851
         7680       11.4838
       7680.5       11.4824
         7681        11.481
       7681.5       11.4797
         7682       11.4783
       7682.5       11.4769
         7683       11.4756
       7683.5       11.4742
         7684       11.4728
       7684.5       11.4715
         7685       11.4701
       7685.5       11.4687
         7686       11.4674
       7686.5        11.466
         7687       11.4646
       7687.5       11.4633
         7688       11.4619
       7688.5       11.4606
         7689       11.4592
       7689.5       11.4578
         7690       11.4565
       7690.5       11.4551
         7691       11.4537
       7691.5       11.4524
         7692        11.451
       7692.5       11.4496
         7693       11.4483
       7693.5       11.4469
         7694       11.4456
       7694.5       11.4442
         7695       11.4428
       7695.5       11.4415
         7696       11.4401
       7696.5       11.4388
         7697       11.4374
       7697.5        11.436
         7698       11.4347
       7698.5       11.4333
         7699        11.432
       7699.5       11.4306
         7700       11.4292
       7700.5       11.4279
         7701       11.4265
       7701.5       11.4252
         7702       11.4238
       7702.5       11.4224
         7703       11.4211
       7703.5       11.4197
         7704       11.4184
       7704.5        11.417
         7705       11.4157
       7705.5       11.4143
         7706        11.413
       7706.5       11.4116
         7707       11.4102
       7707.5       11.4089
         7708       11.4075
       7708.5       11.4062
         7709       11.4048
       7709.5       11.4035
         7710       11.4021
       7710.5       11.4008
         7711       11.3994
       7711.5        11.398
         7712       11.3967
       7712.5       11.3953
         7713        11.394
       7713.5       11.3926
         7714       11.3913
       7714.5       11.3899
         7715       11.3886
       7715.5       11.3872
         7716       11.3859
       7716.5       11.3845
         7717       11.3832
       7717.5       11.3818
         7718       11.3805
       7718.5       11.3791
         7719       11.3778
       7719.5       11.3764
         7720       11.3751
       7720.5       11.3737
         7721       11.3724
       7721.5        11.371
         7722       11.3697
       7722.5       11.3683
         7723        11.367
       7723.5       11.3656
         7724       11.3643
       7724.5       11.3629
         7725       11.3616
       7725.5       11.3602
         7726       11.3589
       7726.5       11.3575
         7727       11.3562
       7727.5       11.3548
         7728       11.3535
       7728.5       11.3522
         7729       11.3508
       7729.5       11.3495
         7730       11.3481
       7730.5       11.3468
         7731       11.3454
       7731.5       11.3441
         7732       11.3427
       7732.5       11.3414
         7733         11.34
       7733.5       11.3387
         7734       11.3374
       7734.5        11.336
         7735       11.3347
       7735.5       11.3333
         7736        11.332
       7736.5       11.3306
         7737       11.3293
       7737.5        11.328
         7738       11.3266
       7738.5       11.3253
         7739       11.3239
       7739.5       11.3226
         7740       11.3213
       7740.5       11.3199
         7741       11.3186
       7741.5       11.3172
         7742       11.3159
       7742.5       11.3146
         7743       11.3132
       7743.5       11.3119
         7744       11.3105
       7744.5       11.3092
         7745       11.3079
       7745.5       11.3065
         7746       11.3052
       7746.5       11.3038
         7747       11.3025
       7747.5       11.3012
         7748       11.2998
       7748.5       11.2985
         7749       11.2972
       7749.5       11.2958
         7750       11.2945
       7750.5       11.2931
         7751       11.2918
       7751.5       11.2905
         7752       11.2891
       7752.5       11.2878
         7753       11.2865
       7753.5       11.2851
         7754       11.2838
       7754.5       11.2825
         7755       11.2811
       7755.5       11.2798
         7756       11.2785
       7756.5       11.2771
         7757       11.2758
       7757.5       11.2745
         7758       11.2731
       7758.5       11.2718
         7759       11.2705
       7759.5       11.2691
         7760       11.2678
       7760.5       11.2665
         7761       11.2651
       7761.5       11.2638
         7762       11.2625
       7762.5       11.2611
         7763       11.2598
       7763.5       11.2585
         7764       11.2571
       7764.5       11.2558
         7765       11.2545
       7765.5       11.2531
         7766       11.2518
       7766.5       11.2505
         7767       11.2492
       7767.5       11.2478
         7768       11.2465
       7768.5       11.2452
         7769       11.2438
       7769.5       11.2425
         7770       11.2412
       7770.5       11.2399
         7771       11.2385
       7771.5       11.2372
         7772       11.2359
       7772.5       11.2346
         7773       11.2332
       7773.5       11.2319
         7774       11.2306
       7774.5       11.2292
         7775       11.2279
       7775.5       11.2266
         7776       11.2253
       7776.5       11.2239
         7777       11.2226
       7777.5       11.2213
         7778         11.22
       7778.5       11.2186
         7779       11.2173
       7779.5        11.216
         7780       11.2147
       7780.5       11.2133
         7781        11.212
       7781.5       11.2107
         7782       11.2094
       7782.5       11.2081
         7783       11.2067
       7783.5       11.2054
         7784       11.2041
       7784.5       11.2028
         7785       11.2014
       7785.5       11.2001
         7786       11.1988
       7786.5       11.1975
         7787       11.1962
       7787.5       11.1948
         7788       11.1935
       7788.5       11.1922
         7789       11.1909
       7789.5       11.1896
         7790       11.1882
       7790.5       11.1869
         7791       11.1856
       7791.5       11.1843
         7792        11.183
       7792.5       11.1817
         7793       11.1803
       7793.5        11.179
         7794       11.1777
       7794.5       11.1764
         7795       11.1751
       7795.5       11.1737
         7796       11.1724
       7796.5       11.1711
         7797       11.1698
       7797.5       11.1685
         7798       11.1672
       7798.5       11.1658
         7799       11.1645
       7799.5       11.1632
         7800       11.1619
       7800.5       11.1606
         7801       11.1593
       7801.5        11.158
         7802       11.1566
       7802.5       11.1553
         7803        11.154
       7803.5       11.1527
         7804       11.1514
       7804.5       11.1501
         7805       11.1488
       7805.5       11.1475
         7806       11.1461
       7806.5       11.1448
         7807       11.1435
       7807.5       11.1422
         7808       11.1409
       7808.5       11.1396
         7809       11.1383
       7809.5        11.137
         7810       11.1356
       7810.5       11.1343
         7811        11.133
       7811.5       11.1317
         7812       11.1304
       7812.5       11.1291
         7813       11.1278
       7813.5       11.1265
         7814       11.1252
       7814.5       11.1239
         7815       11.1226
       7815.5       11.1212
         7816       11.1199
       7816.5       11.1186
         7817       11.1173
       7817.5        11.116
         7818       11.1147
       7818.5       11.1134
         7819       11.1121
       7819.5       11.1108
         7820       11.1095
       7820.5       11.1082
         7821       11.1069
       7821.5       11.1056
         7822       11.1043
       7822.5       11.1029
         7823       11.1016
       7823.5       11.1003
         7824        11.099
       7824.5       11.0977
         7825       11.0964
       7825.5       11.0951
         7826       11.0938
       7826.5       11.0925
         7827       11.0912
       7827.5       11.0899
         7828       11.0886
       7828.5       11.0873
         7829        11.086
       7829.5       11.0847
         7830       11.0834
       7830.5       11.0821
         7831       11.0808
       7831.5       11.0795
         7832       11.0782
       7832.5       11.0769
         7833       11.0756
       7833.5       11.0743
         7834        11.073
       7834.5       11.0717
         7835       11.0704
       7835.5       11.0691
         7836       11.0678
       7836.5       11.0665
         7837       11.0652
       7837.5       11.0639
         7838       11.0626
       7838.5       11.0613
         7839         11.06
       7839.5       11.0587
         7840       11.0574
       7840.5       11.0561
         7841       11.0548
       7841.5       11.0535
         7842       11.0522
       7842.5       11.0509
         7843       11.0496
       7843.5       11.0483
         7844        11.047
       7844.5       11.0457
         7845       11.0444
       7845.5       11.0431
         7846       11.0418
       7846.5       11.0405
         7847       11.0392
       7847.5        11.038
         7848       11.0367
       7848.5       11.0354
         7849       11.0341
       7849.5       11.0328
         7850       11.0315
       7850.5       11.0302
         7851       11.0289
       7851.5       11.0276
         7852       11.0263
       7852.5        11.025
         7853       11.0237
       7853.5       11.0224
         7854       11.0211
       7854.5       11.0198
         7855       11.0186
       7855.5       11.0173
         7856        11.016
       7856.5       11.0147
         7857       11.0134
       7857.5       11.0121
         7858       11.0108
       7858.5       11.0095
         7859       11.0082
       7859.5       11.0069
         7860       11.0057
       7860.5       11.0044
         7861       11.0031
       7861.5       11.0018
         7862       11.0005
       7862.5       10.9992
         7863       10.9979
       7863.5       10.9966
         7864       10.9953
       7864.5       10.9941
         7865       10.9928
       7865.5       10.9915
         7866       10.9902
       7866.5       10.9889
         7867       10.9876
       7867.5       10.9863
         7868        10.985
       7868.5       10.9838
         7869       10.9825
       7869.5       10.9812
         7870       10.9799
       7870.5       10.9786
         7871       10.9773
       7871.5       10.9761
         7872       10.9748
       7872.5       10.9735
         7873       10.9722
       7873.5       10.9709
         7874       10.9696
       7874.5       10.9683
         7875       10.9671
       7875.5       10.9658
         7876       10.9645
       7876.5       10.9632
         7877       10.9619
       7877.5       10.9607
         7878       10.9594
       7878.5       10.9581
         7879       10.9568
       7879.5       10.9555
         7880       10.9542
       7880.5        10.953
         7881       10.9517
       7881.5       10.9504
         7882       10.9491
       7882.5       10.9478
         7883       10.9466
       7883.5       10.9453
         7884        10.944
       7884.5       10.9427
         7885       10.9414
       7885.5       10.9402
         7886       10.9389
       7886.5       10.9376
         7887       10.9363
       7887.5       10.9351
         7888       10.9338
       7888.5       10.9325
         7889       10.9312
       7889.5       10.9299
         7890       10.9287
       7890.5       10.9274
         7891       10.9261
       7891.5       10.9248
         7892       10.9236
       7892.5       10.9223
         7893        10.921
       7893.5       10.9197
         7894       10.9185
       7894.5       10.9172
         7895       10.9159
       7895.5       10.9146
         7896       10.9134
       7896.5       10.9121
         7897       10.9108
       7897.5       10.9095
         7898       10.9083
       7898.5        10.907
         7899       10.9057
       7899.5       10.9044
         7900       10.9032
       7900.5       10.9019
         7901       10.9006
       7901.5       10.8994
         7902       10.8981
       7902.5       10.8968
         7903       10.8955
       7903.5       10.8943
         7904        10.893
       7904.5       10.8917
         7905       10.8905
       7905.5       10.8892
         7906       10.8879
       7906.5       10.8866
         7907       10.8854
       7907.5       10.8841
         7908       10.8828
       7908.5       10.8816
         7909       10.8803
       7909.5        10.879
         7910       10.8778
       7910.5       10.8765
         7911       10.8752
       7911.5        10.874
         7912       10.8727
       7912.5       10.8714
         7913       10.8701
       7913.5       10.8689
         7914       10.8676
       7914.5       10.8663
         7915       10.8651
       7915.5       10.8638
         7916       10.8625
       7916.5       10.8613
         7917         10.86
       7917.5       10.8587
         7918       10.8575
       7918.5       10.8562
         7919        10.855
       7919.5       10.8537
         7920       10.8524
       7920.5       10.8512
         7921       10.8499
       7921.5       10.8486
         7922       10.8474
       7922.5       10.8461
         7923       10.8448
       7923.5       10.8436
         7924       10.8423
       7924.5       10.8411
         7925       10.8398
       7925.5       10.8385
         7926       10.8373
       7926.5        10.836
         7927       10.8347
       7927.5       10.8335
         7928       10.8322
       7928.5        10.831
         7929       10.8297
       7929.5       10.8284
         7930       10.8272
       7930.5       10.8259
         7931       10.8247
       7931.5       10.8234
         7932       10.8221
       7932.5       10.8209
         7933       10.8196
       7933.5       10.8184
         7934       10.8171
       7934.5       10.8158
         7935       10.8146
       7935.5       10.8133
         7936       10.8121
       7936.5       10.8108
         7937       10.8096
       7937.5       10.8083
         7938        10.807
       7938.5       10.8058
         7939       10.8045
       7939.5       10.8033
         7940        10.802
       7940.5       10.8008
         7941       10.7995
       7941.5       10.7982
         7942        10.797
       7942.5       10.7957
         7943       10.7945
       7943.5       10.7932
         7944        10.792
       7944.5       10.7907
         7945       10.7895
       7945.5       10.7882
         7946       10.7869
       7946.5       10.7857
         7947       10.7844
       7947.5       10.7832
         7948       10.7819
       7948.5       10.7807
         7949       10.7794
       7949.5       10.7782
         7950       10.7769
       7950.5       10.7757
         7951       10.7744
       7951.5       10.7732
         7952       10.7719
       7952.5       10.7707
         7953       10.7694
       7953.5       10.7682
         7954       10.7669
       7954.5       10.7657
         7955       10.7644
       7955.5       10.7632
         7956       10.7619
       7956.5       10.7607
         7957       10.7594
       7957.5       10.7582
         7958       10.7569
       7958.5       10.7557
         7959       10.7544
       7959.5       10.7532
         7960       10.7519
       7960.5       10.7507
         7961       10.7494
       7961.5       10.7482
         7962       10.7469
       7962.5       10.7457
         7963       10.7444
       7963.5       10.7432
         7964       10.7419
       7964.5       10.7407
         7965       10.7395
       7965.5       10.7382
         7966        10.737
       7966.5       10.7357
         7967       10.7345
       7967.5       10.7332
         7968        10.732
       7968.5       10.7307
         7969       10.7295
       7969.5       10.7282
         7970        10.727
       7970.5       10.7258
         7971       10.7245
       7971.5       10.7233
         7972        10.722
       7972.5       10.7208
         7973       10.7195
       7973.5       10.7183
         7974       10.7171
       7974.5       10.7158
         7975       10.7146
       7975.5       10.7133
         7976       10.7121
       7976.5       10.7108
         7977       10.7096
       7977.5       10.7084
         7978       10.7071
       7978.5       10.7059
         7979       10.7046
       7979.5       10.7034
         7980       10.7022
       7980.5       10.7009
         7981       10.6997
       7981.5       10.6984
         7982       10.6972
       7982.5        10.696
         7983       10.6947
       7983.5       10.6935
         7984       10.6922
       7984.5        10.691
         7985       10.6898
       7985.5       10.6885
         7986       10.6873
       7986.5       10.6861
         7987       10.6848
       7987.5       10.6836
         7988       10.6823
       7988.5       10.6811
         7989       10.6799
       7989.5       10.6786
         7990       10.6774
       7990.5       10.6762
         7991       10.6749
       7991.5       10.6737
         7992       10.6725
       7992.5       10.6712
         7993         10.67
       7993.5       10.6687
         7994       10.6675
       7994.5       10.6663
         7995        10.665
       7995.5       10.6638
         7996       10.6626
       7996.5       10.6613
         7997       10.6601
       7997.5       10.6589
         7998       10.6576
       7998.5       10.6564
         7999       10.6552
       7999.5       10.6539
         8000       10.6527
       8000.5       10.6515
         8001       10.6503
       8001.5        10.649
         8002       10.6478
       8002.5       10.6466
         8003       10.6453
       8003.5       10.6441
         8004       10.6429
       8004.5       10.6416
         8005       10.6404
       8005.5       10.6392
         8006       10.6379
       8006.5       10.6367
         8007       10.6355
       8007.5       10.6343
         8008        10.633
       8008.5       10.6318
         8009       10.6306
       8009.5       10.6293
         8010       10.6281
       8010.5       10.6269
         8011       10.6257
       8011.5       10.6244
         8012       10.6232
       8012.5        10.622
         8013       10.6207
       8013.5       10.6195
         8014       10.6183
       8014.5       10.6171
         8015       10.6158
       8015.5       10.6146
         8016       10.6134
       8016.5       10.6122
         8017       10.6109
       8017.5       10.6097
         8018       10.6085
       8018.5       10.6073
         8019        10.606
       8019.5       10.6048
         8020       10.6036
       8020.5       10.6024
         8021       10.6011
       8021.5       10.5999
         8022       10.5987
       8022.5       10.5975
         8023       10.5963
       8023.5        10.595
         8024       10.5938
       8024.5       10.5926
         8025       10.5914
       8025.5       10.5901
         8026       10.5889
       8026.5       10.5877
         8027       10.5865
       8027.5       10.5853
         8028        10.584
       8028.5       10.5828
         8029       10.5816
       8029.5       10.5804
         8030       10.5791
       8030.5       10.5779
         8031       10.5767
       8031.5       10.5755
         8032       10.5743
       8032.5       10.5731
         8033       10.5718
       8033.5       10.5706
         8034       10.5694