# Probe 0 (0.05 0.05 0.005)
#       Probe             0
#        Time
       7500.5       3.23641
         7501       3.23626
       7501.5        3.2361
         7502       3.23594
       7502.5       3.23578
         7503       3.23563
       7503.5       3.23547
         7504       3.23531
       7504.5       3.23515
         7505         3.235
       7505.5       3.23484
         7506       3.23468
       7506.5       3.23452
         7507       3.23437
       7507.5       3.23421
         7508       3.23405
       7508.5       3.23389
         7509       3.23373
       7509.5       3.23358
         7510       3.23342
       7510.5       3.23326
         7511        3.2331
       7511.5       3.23295
         7512       3.23279
       7512.5       3.23263
         7513       3.23247
       7513.5       3.23232
         7514       3.23216
       7514.5         3.232
         7515       3.23184
       7515.5       3.23169
         7516       3.23153
       7516.5       3.23137
         7517       3.23121
       7517.5       3.23106
         7518        3.2309
       7518.5       3.23074
         7519       3.23058
       7519.5       3.23043
         7520       3.23027
       7520.5       3.23011
         7521       3.22995
       7521.5        3.2298
         7522       3.22964
       7522.5       3.22948
         7523       3.22933
       7523.5       3.22917
         7524       3.22901
       7524.5       3.22885
         7525        3.2287
       7525.5       3.22854
         7526       3.22838
       7526.5       3.22822
         7527       3.22807
       7527.5       3.22791
         7528       3.22775
       7528.5       3.22759
         7529       3.22744
       7529.5       3.22728
         7530       3.22712
       7530.5       3.22697
         7531       3.22681
       7531.5       3.22665
         7532       3.22649
       7532.5       3.22634
         7533       3.22618
       7533.5       3.22602
         7534       3.22586
       7534.5       3.22571
         7535       3.22555
       7535.5       3.22539
         7536       3.22524
       7536.5       3.22508
         7537       3.22492
       7537.5       3.22476
         7538       3.22461
       7538.5       3.22445
         7539       3.22429
       7539.5       3.22414
         7540       3.22398
       7540.5       3.22382
         7541       3.22366
       7541.5       3.22351
         7542       3.22335
       7542.5       3.22319
         7543       3.22304
       7543.5       3.22288
         7544       3.22272
       7544.5       3.22256
         7545       3.22241
       7545.5       3.22225
         7546       3.22209
       7546.5       3.22194
         7547       3.22178
       7547.5       3.22162
         7548       3.22146
       7548.5       3.22131
         7549       3.22115
       7549.5       3.22099
         7550       3.22084
       7550.5       3.22068
         7551       3.22052
       7551.5       3.22037
         7552       3.22021
       7552.5       3.22005
         7553       3.21989
       7553.5       3.21974
         7554       3.21958
       7554.5       3.21942
         7555       3.21927
       7555.5       3.21911
         7556       3.21895
       7556.5        3.2188
         7557       3.21864
       7557.5       3.21848
         7558       3.21833
       7558.5       3.21817
         7559       3.21801
       7559.5       3.21785
         7560        3.2177
       7560.5       3.21754
         7561       3.21738
       7561.5       3.21723
         7562       3.21707
       7562.5       3.21691
         7563       3.21676
       7563.5        3.2166
         7564       3.21644
       7564.5       3.21629
         7565       3.21613
       7565.5       3.21597
         7566       3.21582
       7566.5       3.21566
         7567        3.2155
       7567.5       3.21535
         7568       3.21519
       7568.5       3.21503
         7569       3.21488
       7569.5       3.21472
         7570       3.21456
       7570.5       3.21441
         7571       3.21425
       7571.5       3.21409
         7572       3.21394
       7572.5       3.21378
         7573       3.21362
       7573.5       3.21346
         7574       3.21331
       7574.5       3.21315
         7575       3.21299
       7575.5       3.21284
         7576       3.21268
       7576.5       3.21253
         7577       3.21237
       7577.5       3.21221
         7578       3.21206
       7578.5        3.2119
         7579       3.21174
       7579.5       3.21159
         7580       3.21143
       7580.5       3.21127
         7581       3.21112
       7581.5       3.21096
         7582        3.2108
       7582.5       3.21065
         7583       3.21049
       7583.5       3.21033
         7584       3.21018
       7584.5       3.21002
         7585       3.20986
       7585.5       3.20971
         7586       3.20955
       7586.5       3.20939
         7587       3.20924
       7587.5       3.20908
         7588       3.20892
       7588.5       3.20877
         7589       3.20861
       7589.5       3.20845
         7590        3.2083
       7590.5       3.20814
         7591       3.20799
       7591.5       3.20783
         7592       3.20767
       7592.5       3.20752
         7593       3.20736
       7593.5        3.2072
         7594       3.20705
       7594.5       3.20689
         7595       3.20673
       7595.5       3.20658
         7596       3.20642
       7596.5       3.20627
         7597       3.20611
       7597.5       3.20595
         7598        3.2058
       7598.5       3.20564
         7599       3.20548
       7599.5       3.20533
         7600       3.20517
       7600.5       3.20501
         7601       3.20486
       7601.5        3.2047
         7602       3.20455
       7602.5       3.20439
         7603       3.20423
       7603.5       3.20408
         7604       3.20392
       7604.5       3.20376
         7605       3.20361
       7605.5       3.20345
         7606        3.2033
       7606.5       3.20314
         7607       3.20298
       7607.5       3.20283
         7608       3.20267
       7608.5       3.20252
         7609       3.20236
       7609.5        3.2022
         7610       3.20205
       7610.5       3.20189
         7611       3.20173
       7611.5       3.20158
         7612       3.20142
       7612.5       3.20127
         7613       3.20111
       7613.5       3.20095
         7614        3.2008
       7614.5       3.20064
         7615       3.20049
       7615.5       3.20033
         7616       3.20017
       7616.5       3.20002
         7617       3.19986
       7617.5        3.1997
         7618       3.19955
       7618.5       3.19939
         7619       3.19924
       7619.5       3.19908
         7620       3.19892
       7620.5       3.19877
         7621       3.19861
       7621.5       3.19846
         7622        3.1983
       7622.5       3.19814
         7623       3.19799
       7623.5       3.19783
         7624       3.19768
       7624.5       3.19752
         7625       3.19736
       7625.5       3.19721
         7626       3.19705
       7626.5        3.1969
         7627       3.19674
       7627.5       3.19659
         7628       3.19643
       7628.5       3.19627
         7629       3.19612
       7629.5       3.19596
         7630       3.19581
       7630.5       3.19565
         7631       3.19549
       7631.5       3.19534
         7632       3.19518
       7632.5       3.19503
         7633       3.19487
       7633.5       3.19471
         7634       3.19456
       7634.5        3.1944
         7635       3.19425
       7635.5       3.19409
         7636       3.19394
       7636.5       3.19378
         7637       3.19362
       7637.5       3.19347
         7638       3.19331
       7638.5       3.19316
         7639         3.193
       7639.5       3.19285
         7640       3.19269
       7640.5       3.19253
         7641       3.19238
       7641.5       3.19222
         7642       3.19207
       7642.5       3.19191
         7643       3.19176
       7643.5        3.1916
         7644       3.19144
       7644.5       3.19129
         7645       3.19113
       7645.5       3.19098
         7646       3.19082
       7646.5       3.19067
         7647       3.19051
       7647.5       3.19035
         7648        3.1902
       7648.5       3.19004
         7649       3.18989
       7649.5       3.18973
         7650       3.18958
       7650.5       3.18942
         7651       3.18927
       7651.5       3.18911
         7652       3.18895
       7652.5        3.1888
         7653       3.18864
       7653.5       3.18849
         7654       3.18833
       7654.5       3.18818
         7655       3.18802
       7655.5       3.18787
         7656       3.18771
       7656.5       3.18755
         7657        3.1874
       7657.5       3.18724
         7658       3.18709
       7658.5       3.18693
         7659       3.18678
       7659.5       3.18662
         7660       3.18647
       7660.5       3.18631
         7661       3.18615
       7661.5         3.186
         7662       3.18584
       7662.5       3.18569
         7663       3.18553
       7663.5       3.18538
         7664       3.18522
       7664.5       3.18507
         7665       3.18491
       7665.5       3.18476
         7666        3.1846
       7666.5       3.18445
         7667       3.18429
       7667.5       3.18413
         7668       3.18398
       7668.5       3.18382
         7669       3.18367
       7669.5       3.18351
         7670       3.18336
       7670.5        3.1832
         7671       3.18305
       7671.5       3.18289
         7672       3.18274
       7672.5       3.18258
         7673       3.18243
       7673.5       3.18227
         7674       3.18212
       7674.5       3.18196
         7675       3.18181
       7675.5       3.18165
         7676       3.18149
       7676.5       3.18134
         7677       3.18118
       7677.5       3.18103
         7678       3.18087
       7678.5       3.18072
         7679       3.18056
       7679.5       3.18041
         7680       3.18025
       7680.5        3.1801
         7681       3.17994
       7681.5       3.17979
         7682       3.17963
       7682.5       3.17948
         7683       3.17932
       7683.5       3.17917
         7684       3.17901
       7684.5       3.17886
         7685        3.1787
       7685.5       3.17855
         7686       3.17839
       7686.5       3.17824
         7687       3.17808
       7687.5       3.17793
         7688       3.17777
       7688.5       3.17762
         7689       3.17746
       7689.5       3.17731
         7690       3.17715
       7690.5         3.177
         7691       3.17684
       7691.5       3.17669
         7692       3.17653
       7692.5       3.17638
         7693       3.17622
       7693.5       3.17607
         7694       3.17591
       7694.5       3.17576
         7695        3.1756
       7695.5       3.17545
         7696       3.17529
       7696.5       3.17514
         7697       3.17498
       7697.5       3.17483
         7698       3.17467
       7698.5       3.17452
         7699       3.17436
       7699.5       3.17421
         7700       3.17405
       7700.5        3.1739
         7701       3.17374
       7701.5       3.17359
         7702       3.17343
       7702.5       3.17328
         7703       3.17312
       7703.5       3.17297
         7704       3.17281
       7704.5       3.17266
         7705        3.1725
       7705.5       3.17235
         7706       3.17219
       7706.5       3.17204
         7707       3.17188
       7707.5       3.17173
         7708       3.17157
       7708.5       3.17142
         7709       3.17127
       7709.5       3.17111
         7710       3.17096
       7710.5        3.1708
         7711       3.17065
       7711.5       3.17049
         7712       3.17034
       7712.5       3.17018
         7713       3.17003
       7713.5       3.16987
         7714       3.16972
       7714.5       3.16956
         7715       3.16941
       7715.5       3.16925
         7716        3.1691
       7716.5       3.16894
         7717       3.16879
       7717.5       3.16864
         7718       3.16848
       7718.5       3.16833
         7719       3.16817
       7719.5       3.16802
         7720       3.16786
       7720.5       3.16771
         7721       3.16755
       7721.5        3.1674
         7722       3.16724
       7722.5       3.16709
         7723       3.16693
       7723.5       3.16678
         7724       3.16663
       7724.5       3.16647
         7725       3.16632
       7725.5       3.16616
         7726       3.16601
       7726.5       3.16585
         7727        3.1657
       7727.5       3.16554
         7728       3.16539
       7728.5       3.16523
         7729       3.16508
       7729.5       3.16493
         7730       3.16477
       7730.5       3.16462
         7731       3.16446
       7731.5       3.16431
         7732       3.16415
       7732.5         3.164
         7733       3.16384
       7733.5       3.16369
         7734       3.16354
       7734.5       3.16338
         7735       3.16323
       7735.5       3.16307
         7736       3.16292
       7736.5       3.16276
         7737       3.16261
       7737.5       3.16246
         7738        3.1623
       7738.5       3.16215
         7739       3.16199
       7739.5       3.16184
         7740       3.16168
       7740.5       3.16153
         7741       3.16137
       7741.5       3.16122
         7742       3.16107
       7742.5       3.16091
         7743       3.16076
       7743.5        3.1606
         7744       3.16045
       7744.5       3.16029
         7745       3.16014
       7745.5       3.15999
         7746       3.15983
       7746.5       3.15968
         7747       3.15952
       7747.5       3.15937
         7748       3.15922
       7748.5       3.15906
         7749       3.15891
       7749.5       3.15875
         7750        3.1586
       7750.5       3.15844
         7751       3.15829
       7751.5       3.15814
         7752       3.15798
       7752.5       3.15783
         7753       3.15767
       7753.5       3.15752
         7754       3.15737
       7754.5       3.15721
         7755       3.15706
       7755.5        3.1569
         7756       3.15675
       7756.5       3.15659
         7757       3.15644
       7757.5       3.15629
         7758       3.15613
       7758.5       3.15598
         7759       3.15582
       7759.5       3.15567
         7760       3.15552
       7760.5       3.15536
         7761       3.15521
       7761.5       3.15505
         7762        3.1549
       7762.5       3.15475
         7763       3.15459
       7763.5       3.15444
         7764       3.15428
       7764.5       3.15413
         7765       3.15398
       7765.5       3.15382
         7766       3.15367
       7766.5       3.15351
         7767       3.15336
       7767.5       3.15321
         7768       3.15305
       7768.5        3.1529
         7769       3.15274
       7769.5       3.15259
         7770       3.15244
       7770.5       3.15228
         7771       3.15213
       7771.5       3.15197
         7772       3.15182
       7772.5       3.15167
         7773       3.15151
       7773.5       3.15136
         7774       3.15121
       7774.5       3.15105
         7775        3.1509
       7775.5       3.15074
         7776       3.15059
       7776.5       3.15044
         7777       3.15028
       7777.5       3.15013
         7778       3.14997
       7778.5       3.14982
         7779       3.14967
       7779.5       3.14951
         7780       3.14936
       7780.5       3.14921
         7781       3.14905
       7781.5        3.1489
         7782       3.14874
       7782.5       3.14859
         7783       3.14844
       7783.5       3.14828
         7784       3.14813
       7784.5       3.14798
         7785       3.14782
       7785.5       3.14767
         7786       3.14752
       7786.5       3.14736
         7787       3.14721
       7787.5       3.14705
         7788        3.1469
       7788.5       3.14675
         7789       3.14659
       7789.5       3.14644
         7790       3.14629
       7790.5       3.14613
         7791       3.14598
       7791.5       3.14583
         7792       3.14567
       7792.5       3.14552
         7793       3.14536
       7793.5       3.14521
         7794       3.14506
       7794.5        3.1449
         7795       3.14475
       7795.5        3.1446
         7796       3.14444
       7796.5       3.14429
         7797       3.14414
       7797.5       3.14398
         7798       3.14383
       7798.5       3.14368
         7799       3.14352
       7799.5       3.14337
         7800       3.14321
       7800.5       3.14306
         7801       3.14291
       7801.5       3.14275
         7802        3.1426
       7802.5       3.14245
         7803       3.14229
       7803.5       3.14214
         7804       3.14199
       7804.5       3.14183
         7805       3.14168
       7805.5       3.14153
         7806       3.14137
       7806.5       3.14122
         7807       3.14107
       7807.5       3.14091
         7808       3.14076
       7808.5       3.14061
         7809       3.14045
       7809.5        3.1403
         7810       3.14015
       7810.5       3.13999
         7811       3.13984
       7811.5       3.13969
         7812       3.13953
       7812.5       3.13938
         7813       3.13923
       7813.5       3.13907
         7814       3.13892
       7814.5       3.13877
         7815       3.13861
       7815.5       3.13846
         7816       3.13831
       7816.5       3.13815
         7817         3.138
       7817.5       3.13785
         7818       3.13769
       7818.5       3.13754
         7819       3.13739
       7819.5       3.13723
         7820       3.13708
       7820.5       3.13693
         7821       3.13677
       7821.5       3.13662
         7822       3.13647
       7822.5       3.13632
         7823       3.13616
       7823.5       3.13601
         7824       3.13586
       7824.5        3.1357
         7825       3.13555
       7825.5        3.1354
         7826       3.13524
       7826.5       3.13509
         7827       3.13494
       7827.5       3.13478
         7828       3.13463
       7828.5       3.13448
         7829       3.13432
       7829.5       3.13417
         7830       3.13402
       7830.5       3.13387
         7831       3.13371
       7831.5       3.13356
         7832       3.13341
       7832.5       3.13325
         7833        3.1331
       7833.5       3.13295
         7834       3.13279
       7834.5       3.13264
         7835       3.13249
       7835.5       3.13234
         7836       3.13218
       7836.5       3.13203
         7837       3.13188
       7837.5       3.13172
         7838       3.13157
       7838.5       3.13142
         7839       3.13126
       7839.5       3.13111
         7840       3.13096
       7840.5       3.13081
         7841       3.13065
       7841.5        3.1305
         7842       3.13035
       7842.5       3.13019
         7843       3.13004
       7843.5       3.12989
         7844       3.12974
       7844.5       3.12958
         7845       3.12943
       7845.5       3.12928
         7846       3.12912
       7846.5       3.12897
         7847       3.12882
       7847.5       3.12867
         7848       3.12851
       7848.5       3.12836
         7849       3.12821
       7849.5       3.12805
         7850        3.1279
       7850.5       3.12775
         7851        3.1276
       7851.5       3.12744
         7852       3.12729
       7852.5       3.12714
         7853       3.12698
       7853.5       3.12683
         7854       3.12668
       7854.5       3.12653
         7855       3.12637
       7855.5       3.12622
         7856       3.12607
       7856.5       3.12592
         7857       3.12576
       7857.5       3.12561
         7858       3.12546
       7858.5       3.12531
         7859       3.12515
       7859.5         3.125
         7860       3.12485
       7860.5       3.12469
         7861       3.12454
       7861.5       3.12439
         7862       3.12424
       7862.5       3.12408
         7863       3.12393
       7863.5       3.12378
         7864       3.12363
       7864.5       3.12347
         7865       3.12332
       7865.5       3.12317
         7866       3.12302
       7866.5       3.12286
         7867       3.12271
       7867.5       3.12256
         7868       3.12241
       7868.5       3.12225
         7869        3.1221
       7869.5       3.12195
         7870        3.1218
       7870.5       3.12164
         7871       3.12149
       7871.5       3.12134
         7872       3.12119
       7872.5       3.12103
         7873       3.12088
       7873.5       3.12073
         7874       3.12058
       7874.5       3.12042
         7875       3.12027
       7875.5       3.12012
         7876       3.11997
       7876.5       3.11981
         7877       3.11966
       7877.5       3.11951
         7878       3.11936
       7878.5        3.1192
         7879       3.11905
       7879.5        3.1189
         7880       3.11875
       7880.5       3.11859
         7881       3.11844
       7881.5       3.11829
         7882       3.11814
       7882.5       3.11799
         7883       3.11783
       7883.5       3.11768
         7884       3.11753
       7884.5       3.11738
         7885       3.11722
       7885.5       3.11707
         7886       3.11692
       7886.5       3.11677
         7887       3.11661
       7887.5       3.11646
         7888       3.11631
       7888.5       3.11616
         7889       3.11601
       7889.5       3.11585
         7890        3.1157
       7890.5       3.11555
         7891        3.1154
       7891.5       3.11524
         7892       3.11509
       7892.5       3.11494
         7893       3.11479
       7893.5       3.11464
         7894       3.11448
       7894.5       3.11433
         7895       3.11418
       7895.5       3.11403
         7896       3.11388
       7896.5       3.11372
         7897       3.11357
       7897.5       3.11342
         7898       3.11327
       7898.5       3.11311
         7899       3.11296
       7899.5       3.11281
         7900       3.11266
       7900.5       3.11251
         7901       3.11235
       7901.5        3.1122
         7902       3.11205
       7902.5        3.1119
         7903       3.11175
       7903.5       3.11159
         7904       3.11144
       7904.5       3.11129
         7905       3.11114
       7905.5       3.11099
         7906       3.11083
       7906.5       3.11068
         7907       3.11053
       7907.5       3.11038
         7908       3.11023
       7908.5       3.11007
         7909       3.10992
       7909.5       3.10977
         7910       3.10962
       7910.5       3.10947
         7911       3.10931
       7911.5       3.10916
         7912       3.10901
       7912.5       3.10886
         7913       3.10871
       7913.5       3.10855
         7914        3.1084
       7914.5       3.10825
         7915        3.1081
       7915.5       3.10795
         7916        3.1078
       7916.5       3.10764
         7917       3.10749
       7917.5       3.10734
         7918       3.10719
       7918.5       3.10704
         7919       3.10688
       7919.5       3.10673
         7920       3.10658
       7920.5       3.10643
         7921       3.10628
       7921.5       3.10612
         7922       3.10597
       7922.5       3.10582
         7923       3.10567
       7923.5       3.10552
         7924       3.10537
       7924.5       3.10521
         7925       3.10506
       7925.5       3.10491
         7926       3.10476
       7926.5       3.10461
         7927       3.10446
       7927.5        3.1043
         7928       3.10415
       7928.5         3.104
         7929       3.10385
       7929.5        3.1037
         7930       3.10355
       7930.5       3.10339
         7931       3.10324
       7931.5       3.10309
         7932       3.10294
       7932.5       3.10279
         7933       3.10264
       7933.5       3.10248
         7934       3.10233
       7934.5       3.10218
         7935       3.10203
       7935.5       3.10188
         7936       3.10173
       7936.5       3.10157
         7937       3.10142
       7937.5       3.10127
         7938       3.10112
       7938.5       3.10097
         7939       3.10082
       7939.5       3.10067
         7940       3.10051
       7940.5       3.10036
         7941       3.10021
       7941.5       3.10006
         7942       3.09991
       7942.5       3.09976
         7943        3.0996
       7943.5       3.09945
         7944        3.0993
       7944.5       3.09915
         7945         3.099
       7945.5       3.09885
         7946        3.0987
       7946.5       3.09854
         7947       3.09839
       7947.5       3.09824
         7948       3.09809
       7948.5       3.09794
         7949       3.09779
       7949.5       3.09764
         7950       3.09748
       7950.5       3.09733
         7951       3.09718
       7951.5       3.09703
         7952       3.09688
       7952.5       3.09673
         7953       3.09658
       7953.5       3.09643
         7954       3.09627
       7954.5       3.09612
         7955       3.09597
       7955.5       3.09582
         7956       3.09567
       7956.5       3.09552
         7957       3.09537
       7957.5       3.09521
         7958       3.09506
       7958.5       3.09491
         7959       3.09476
       7959.5       3.09461
         7960       3.09446
       7960.5       3.09431
         7961       3.09416
       7961.5         3.094
         7962       3.09385
       7962.5        3.0937
         7963       3.09355
       7963.5        3.0934
         7964       3.09325
       7964.5        3.0931
         7965       3.09295
       7965.5        3.0928
         7966       3.09264
       7966.5       3.09249
         7967       3.09234
       7967.5       3.09219
         7968       3.09204
       7968.5       3.09189
         7969       3.09174
       7969.5       3.09159
         7970       3.09143
       7970.5       3.09128
         7971       3.09113
       7971.5       3.09098
         7972       3.09083
       7972.5       3.09068
         7973       3.09053
       7973.5       3.09038
         7974       3.09023
       7974.5       3.09008
         7975       3.08992
       7975.5       3.08977
         7976       3.08962
       7976.5       3.08947
         7977       3.08932
       7977.5       3.08917
         7978       3.08902
       7978.5       3.08887
         7979       3.08872
       7979.5       3.08857
         7980       3.08841
       7980.5       3.08826
         7981       3.08811
       7981.5       3.08796
         7982       3.08781
       7982.5       3.08766
         7983       3.08751
       7983.5       3.08736
         7984       3.08721
       7984.5       3.08706
         7985        3.0869
       7985.5       3.08675
         7986        3.0866
       7986.5       3.08645
         7987        3.0863
       7987.5       3.08615
         7988         3.086
       7988.5       3.08585
         7989        3.0857
       7989.5       3.08555
         7990        3.0854
       7990.5       3.08525
         7991       3.08509
       7991.5       3.08494
         7992       3.08479
       7992.5       3.08464
         7993       3.08449
       7993.5       3.08434
         7994       3.08419
       7994.5       3.08404
         7995       3.08389
       7995.5       3.08374
         7996       3.08359
       7996.5       3.08344
         7997       3.08329
       7997.5       3.08313
         7998       3.08298
       7998.5       3.08283
         7999       3.08268
       7999.5       3.08253
         8000       3.08238
       8000.5       3.08223
         8001       3.08208
       8001.5       3.08193
         8002       3.08178
       8002.5       3.08163
         8003       3.08148
       8003.5       3.08133
         8004       3.08118
       8004.5       3.08103
         8005       3.08087
       8005.5       3.08072
         8006       3.08057
       8006.5       3.08042
         8007       3.08027
       8007.5       3.08012
         8008       3.07997
       8008.5       3.07982
         8009       3.07967
       8009.5       3.07952
         8010       3.07937
       8010.5       3.07922
         8011       3.07907
       8011.5       3.07892
         8012       3.07877
       8012.5       3.07862
         8013       3.07847
       8013.5       3.07831
         8014       3.07816
       8014.5       3.07801
         8015       3.07786
       8015.5       3.07771
         8016       3.07756
       8016.5       3.07741
         8017       3.07726
       8017.5       3.07711
         8018       3.07696
       8018.5       3.07681
         8019       3.07666
       8019.5       3.07651
         8020       3.07636
       8020.5       3.07621
         8021       3.07606
       8021.5       3.07591
         8022       3.07576
       8022.5       3.07561
         8023       3.07546
       8023.5       3.07531
         8024       3.07516
       8024.5       3.07501
         8025       3.07486
       8025.5        3.0747
         8026       3.07455
       8026.5        3.0744
         8027       3.07425
       8027.5        3.0741
         8028       3.07395
       8028.5        3.0738
         8029       3.07365
       8029.5        3.0735
         8030       3.07335
       8030.5        3.0732
         8031       3.07305
       8031.5        3.0729
         8032       3.07275
       8032.5        3.0726
         8033       3.07245
       8033.5        3.0723
         8034       3.07215