# Probe 0 (0.05 0.05 0.005)
#       Probe             0
#        Time
       7500.5       1723.51
         7501       1722.89
       7501.5       1722.26
         7502       1721.64
       7502.5       1721.01
         7503       1720.39
       7503.5       1719.76
         7504       1719.14
       7504.5       1718.52
         7505       1717.89
       7505.5       1717.27
         7506       1716.65
       7506.5       1716.02
         7507        1715.4
       7507.5       1714.78
         7508       1714.15
       7508.5       1713.53
         7509       1712.91
       7509.5       1712.29
         7510       1711.67
       7510.5       1711.05
         7511       1710.43
       7511.5       1709.81
         7512       1709.19
       7512.5       1708.57
         7513       1707.95
       7513.5       1707.33
         7514       1706.71
       7514.5       1706.09
         7515       1705.47
       7515.5       1704.85
         7516       1704.23
       7516.5       1703.62
         7517          1703
       7517.5       1702.38
         7518       1701.76
       7518.5       1701.15
         7519       1700.53
       7519.5       1699.91
         7520        1699.3
       7520.5       1698.68
         7521       1698.07
       7521.5       1697.45
         7522       1696.84
       7522.5       1696.22
         7523       1695.61
       7523.5       1694.99
         7524       1694.38
       7524.5       1693.76
         7525       1693.15
       7525.5       1692.54
         7526       1691.92
       7526.5       1691.31
         7527        1690.7
       7527.5       1690.09
         7528       1689.47
       7528.5       1688.86
         7529       1688.25
       7529.5       1687.64
         7530       1687.03
       7530.5       1686.42
         7531       1685.81
       7531.5        1685.2
         7532       1684.59
       7532.5       1683.98
         7533       1683.37
       7533.5       1682.76
         7534       1682.15
       7534.5       1681.54
         7535       1680.93
       7535.5       1680.32
         7536       1679.71
       7536.5       1679.11
         7537        1678.5
       7537.5       1677.89
         7538       1677.28
       7538.5       1676.68
         7539       1676.07
       7539.5       1675.46
         7540       1674.86
       7540.5       1674.25
         7541       1673.65
       7541.5       1673.04
         7542       1672.44
       7542.5       1671.83
         7543       1671.23
       7543.5       1670.62
         7544       1670.02
       7544.5       1669.41
         7545       1668.81
       7545.5       1668.21
         7546        1667.6
       7546.5          1667
         7547        1666.4
       7547.5        1665.8
         7548       1665.19
       7548.5       1664.59
         7549       1663.99
       7549.5       1663.39
         7550       1662.79
       7550.5       1662.19
         7551       1661.58
       7551.5       1660.98
         7552       1660.38
       7552.5       1659.78
         7553       1659.18
       7553.5       1658.58
         7554       1657.99
       7554.5       1657.39
         7555       1656.79
       7555.5       1656.19
         7556       1655.59
       7556.5       1654.99
         7557       1654.39
       7557.5        1653.8
         7558        1653.2
       7558.5        1652.6
         7559       1652.01
       7559.5       1651.41
         7560       1650.81
       7560.5       1650.22
         7561       1649.62
       7561.5       1649.02
         7562       1648.43
       7562.5       1647.83
         7563       1647.24
       7563.5       1646.64
         7564       1646.05
       7564.5       1645.46
         7565       1644.86
       7565.5       1644.27
         7566       1643.67
       7566.5       1643.08
         7567       1642.49
       7567.5        1641.9
         7568        1641.3
       7568.5       1640.71
         7569       1640.12
       7569.5       1639.53
         7570       1638.94
       7570.5       1638.34
         7571       1637.75
       7571.5       1637.16
         7572       1636.57
       7572.5       1635.98
         7573       1635.39
       7573.5        1634.8
         7574       1634.21
       7574.5       1633.62
         7575       1633.03
       7575.5       1632.44
         7576       1631.86
       7576.5       1631.27
         7577       1630.68
       7577.5       1630.09
         7578        1629.5
       7578.5       1628.92
         7579       1628.33
       7579.5       1627.74
         7580       1627.15
       7580.5       1626.57
         7581       1625.98
       7581.5        1625.4
         7582       1624.81
       7582.5       1624.22
         7583       1623.64
       7583.5       1623.05
         7584       1622.47
       7584.5       1621.88
         7585        1621.3
       7585.5       1620.72
         7586       1620.13
       7586.5       1619.55
         7587       1618.96
       7587.5       1618.38
         7588        1617.8
       7588.5       1617.22
         7589       1616.63
       7589.5       1616.05
         7590       1615.47
       7590.5       1614.89
         7591       1614.31
       7591.5       1613.72
         7592       1613.14
       7592.5       1612.56
         7593       1611.98
       7593.5        1611.4
         7594       1610.82
       7594.5       1610.24
         7595       1609.66
       7595.5       1609.08
         7596        1608.5
       7596.5       1607.92
         7597       1607.34
       7597.5       1606.77
         7598       1606.19
       7598.5       1605.61
         7599       1605.03
       7599.5       1604.45
         7600       1603.88
       7600.5        1603.3
         7601       1602.72
       7601.5       1602.15
         7602       1601.57
       7602.5       1600.99
         7603       1600.42
       7603.5       1599.84
         7604       1599.27
       7604.5       1598.69
         7605       1598.12
       7605.5       1597.54
         7606       1596.97
       7606.5       1596.39
         7607       1595.82
       7607.5       1595.25
         7608       1594.67
       7608.5        1594.1
         7609       1593.52
       7609.5       1592.95
         7610       1592.38
       7610.5       1591.81
         7611       1591.23
       7611.5       1590.66
         7612       1590.09
       7612.5       1589.52
         7613       1588.95
       7613.5       1588.38
         7614       1587.81
       7614.5       1587.24
         7615       1586.67
       7615.5       1586.09
         7616       1585.53
       7616.5       1584.96
         7617       1584.39
       7617.5       1583.82
         7618       1583.25
       7618.5       1582.68
         7619       1582.11
       7619.5       1581.54
         7620       1580.97
       7620.5       1580.41
         7621       1579.84
       7621.5       1579.27
         7622        1578.7
       7622.5       1578.14
         7623       1577.57
       7623.5          1577
         7624       1576.44
       7624.5       1575.87
         7625       1575.31
       7625.5       1574.74
         7626       1574.18
       7626.5       1573.61
         7627       1573.05
       7627.5       1572.48
         7628       1571.92
       7628.5       1571.35
         7629       1570.79
       7629.5       1570.22
         7630       1569.66
       7630.5        1569.1
         7631       1568.53
       7631.5       1567.97
         7632       1567.41
       7632.5       1566.85
         7633       1566.28
       7633.5       1565.72
         7634       1565.16
       7634.5        1564.6
         7635       1564.04
       7635.5       1563.48
         7636       1562.92
       7636.5       1562.36
         7637        1561.8
       7637.5       1561.24
         7638       1560.68
       7638.5       1560.12
         7639       1559.56
       7639.5          1559
         7640       1558.44
       7640.5       1557.88
         7641       1557.32
       7641.5       1556.76
         7642        1556.2
       7642.5       1555.65
         7643       1555.09
       7643.5       1554.53
         7644       1553.97
       7644.5       1553.42
         7645       1552.86
       7645.5        1552.3
         7646       1551.75
       7646.5       1551.19
         7647       1550.64
       7647.5       1550.08
         7648       1549.53
       7648.5       1548.97
         7649       1548.42
       7649.5       1547.86
         7650       1547.31
       7650.5       1546.75
         7651        1546.2
       7651.5       1545.64
         7652       1545.09
       7652.5       1544.54
         7653       1543.98
       7653.5       1543.43
         7654       1542.88
       7654.5       1542.33
         7655       1541.77
       7655.5       1541.22
         7656       1540.67
       7656.5       1540.12
         7657       1539.57
       7657.5       1539.02
         7658       1538.47
       7658.5       1537.91
         7659       1537.36
       7659.5       1536.81
         7660       1536.26
       7660.5       1535.71
         7661       1535.16
       7661.5       1534.62
         7662       1534.07
       7662.5       1533.52
         7663       1532.97
       7663.5       1532.42
         7664       1531.87
       7664.5       1531.32
         7665       1530.78
       7665.5       1530.23
         7666       1529.68
       7666.5       1529.13
         7667       1528.59
       7667.5       1528.04
         7668       1527.49
       7668.5       1526.95
         7669        1526.4
       7669.5       1525.86
         7670       1525.31
       7670.5       1524.77
         7671       1524.22
       7671.5       1523.67
         7672       1523.13
       7672.5       1522.59
         7673       1522.04
       7673.5        1521.5
         7674       1520.95
       7674.5       1520.41
         7675       1519.87
       7675.5       1519.32
         7676       1518.78
       7676.5       1518.24
         7677        1517.7
       7677.5       1517.15
         7678       1516.61
       7678.5       1516.07
         7679       1515.53
       7679.5       1514.99
         7680       1514.44
       7680.5        1513.9
         7681       1513.36
       7681.5       1512.82
         7682       1512.28
       7682.5       1511.74
         7683        1511.2
       7683.5       1510.66
         7684       1510.12
       7684.5       1509.58
         7685       1509.04
       7685.5       1508.51
         7686       1507.97
       7686.5       1507.43
         7687       1506.89
       7687.5       1506.35
         7688       1505.81
       7688.5       1505.28
         7689       1504.74
       7689.5        1504.2
         7690       1503.67
       7690.5       1503.13
         7691       1502.59
       7691.5       1502.06
         7692       1501.52
       7692.5       1500.98
         7693       1500.45
       7693.5       1499.91
         7694       1499.38
       7694.5       1498.84
         7695       1498.31
       7695.5       1497.77
         7696       1497.24
       7696.5       1496.71
         7697       1496.17
       7697.5       1495.64
         7698       1495.11
       7698.5       1494.57
         7699       1494.04
       7699.5       1493.51
         7700       1492.97
       7700.5       1492.44
         7701       1491.91
       7701.5       1491.38
         7702       1490.85
       7702.5       1490.31
         7703       1489.78
       7703.5       1489.25
         7704       1488.72
       7704.5       1488.19
         7705       1487.66
       7705.5       1487.13
         7706        1486.6
       7706.5       1486.07
         7707       1485.54
       7707.5       1485.01
         7708       1484.48
       7708.5       1483.95
         7709       1483.42
       7709.5        1482.9
         7710       1482.37
       7710.5       1481.84
         7711       1481.31
       7711.5       1480.78
         7712       1480.26
       7712.5       1479.73
         7713        1479.2
       7713.5       1478.67
         7714       1478.15
       7714.5       1477.62
         7715        1477.1
       7715.5       1476.57
         7716       1476.04
       7716.5       1475.52
         7717       1474.99
       7717.5       1474.47
         7718       1473.94
       7718.5       1473.42
         7719       1472.89
       7719.5       1472.37
         7720       1471.85
       7720.5       1471.32
         7721        1470.8
       7721.5       1470.27
         7722       1469.75
       7722.5       1469.23
         7723       1468.71
       7723.5       1468.18
         7724       1467.66
       7724.5       1467.14
         7725       1466.62
       7725.5       1466.09
         7726       1465.57
       7726.5       1465.05
         7727       1464.53
       7727.5       1464.01
         7728       1463.49
       7728.5       1462.97
         7729       1462.45
       7729.5       1461.93
         7730       1461.41
       7730.5       1460.89
         7731       1460.37
       7731.5       1459.85
         7732       1459.33
       7732.5       1458.81
         7733       1458.29
       7733.5       1457.77
         7734       1457.26
       7734.5       1456.74
         7735       1456.22
       7735.5        1455.7
         7736       1455.19
       7736.5       1454.67
         7737       1454.15
       7737.5       1453.63
         7738       1453.12
       7738.5        1452.6
         7739       1452.09
       7739.5       1451.57
         7740       1451.05
       7740.5       1450.54
         7741       1450.02
       7741.5       1449.51
         7742       1448.99
       7742.5       1448.48
         7743       1447.96
       7743.5       1447.45
         7744       1446.94
       7744.5       1446.42
         7745       1445.91
       7745.5       1445.39
         7746       1444.88
       7746.5       1444.37
         7747       1443.86
       7747.5       1443.34
         7748       1442.83
       7748.5       1442.32
         7749       1441.81
       7749.5       1441.29
         7750       1440.78
       7750.5       1440.27
         7751       1439.76
       7751.5       1439.25
         7752       1438.74
       7752.5       1438.23
         7753       1437.72
       7753.5       1437.21
         7754        1436.7
       7754.5       1436.19
         7755       1435.68
       7755.5       1435.17
         7756       1434.66
       7756.5       1434.15
         7757       1433.64
       7757.5       1433.13
         7758       1432.62
       7758.5       1432.12
         7759       1431.61
       7759.5        1431.1
         7760       1430.59
       7760.5       1430.09
         7761       1429.58
       7761.5       1429.07
         7762       1428.56
       7762.5       1428.06
         7763       1427.55
       7763.5       1427.05
         7764       1426.54
       7764.5       1426.03
         7765       1425.53
       7765.5       1425.02
         7766       1424.52
       7766.5       1424.01
         7767       1423.51
       7767.5          1423
         7768        1422.5
       7768.5          1422
         7769       1421.49
       7769.5       1420.99
         7770       1420.48
       7770.5       1419.98
         7771       1419.48
       7771.5       1418.98
         7772       1418.47
       7772.5       1417.97
         7773       1417.47
       7773.5       1416.97
         7774       1416.46
       7774.5       1415.96
         7775       1415.46
       7775.5       1414.96
         7776       1414.46
       7776.5       1413.96
         7777       1413.46
       7777.5       1412.96
         7778       1412.46
       7778.5       1411.96
         7779       1411.46
       7779.5       1410.96
         7780       1410.46
       7780.5       1409.96
         7781       1409.46
       7781.5       1408.96
         7782       1408.46
       7782.5       1407.96
         7783       1407.46
       7783.5       1406.97
         7784       1406.47
       7784.5       1405.97
         7785       1405.47
       7785.5       1404.98
         7786       1404.48
       7786.5       1403.98
         7787       1403.49
       7787.5       1402.99
         7788       1402.49
       7788.5          1402
         7789        1401.5
       7789.5          1401
         7790       1400.51
       7790.5       1400.01
         7791       1399.52
       7791.5       1399.02
         7792       1398.53
       7792.5       1398.03
         7793       1397.54
       7793.5       1397.05
         7794       1396.55
       7794.5       1396.06
         7795       1395.56
       7795.5       1395.07
         7796       1394.58
       7796.5       1394.09
         7797       1393.59
       7797.5        1393.1
         7798       1392.61
       7798.5       1392.12
         7799       1391.62
       7799.5       1391.13
         7800       1390.64
       7800.5       1390.15
         7801       1389.66
       7801.5       1389.17
         7802       1388.68
       7802.5       1388.19
         7803        1387.7
       7803.5        1387.2
         7804       1386.71
       7804.5       1386.23
         7805       1385.74
       7805.5       1385.25
         7806       1384.76
       7806.5       1384.27
         7807       1383.78
       7807.5       1383.29
         7808        1382.8
       7808.5       1382.31
         7809       1381.83
       7809.5       1381.34
         7810       1380.85
       7810.5       1380.36
         7811       1379.88
       7811.5       1379.39
         7812        1378.9
       7812.5       1378.41
         7813       1377.93
       7813.5       1377.44
         7814       1376.96
       7814.5       1376.47
         7815       1375.98
       7815.5        1375.5
         7816       1375.01
       7816.5       1374.53
         7817       1374.04
       7817.5       1373.56
         7818       1373.07
       7818.5       1372.59
         7819       1372.11
       7819.5       1371.62
         7820       1371.14
       7820.5       1370.65
         7821       1370.17
       7821.5       1369.69
         7822        1369.2
       7822.5       1368.72
         7823       1368.24
       7823.5       1367.76
         7824       1367.27
       7824.5       1366.79
         7825       1366.31
       7825.5       1365.83
         7826       1365.35
       7826.5       1364.87
         7827       1364.38
       7827.5        1363.9
         7828       1363.42
       7828.5       1362.94
         7829       1362.46
       7829.5       1361.98
         7830        1361.5
       7830.5       1361.02
         7831       1360.54
       7831.5       1360.06
         7832       1359.58
       7832.5       1359.11
         7833       1358.63
       7833.5       1358.15
         7834       1357.67
       7834.5       1357.19
         7835       1356.71
       7835.5       1356.24
         7836       1355.76
       7836.5       1355.28
         7837        1354.8
       7837.5       1354.33
         7838       1353.85
       7838.5       1353.37
         7839        1352.9
       7839.5       1352.42
         7840       1351.94
       7840.5       1351.47
         7841       1350.99
       7841.5       1350.52
         7842       1350.04
       7842.5       1349.57
         7843       1349.09
       7843.5       1348.62
         7844       1348.14
       7844.5       1347.67
         7845       1347.19
       7845.5       1346.72
         7846       1346.24
       7846.5       1345.77
         7847        1345.3
       7847.5       1344.82
         7848       1344.35
       7848.5       1343.88
         7849       1343.41
       7849.5       1342.93
         7850       1342.46
       7850.5       1341.99
         7851       1341.52
       7851.5       1341.04
         7852       1340.57
       7852.5        1340.1
         7853       1339.63
       7853.5       1339.16
         7854       1338.69
       7854.5       1338.22
         7855       1337.75
       7855.5       1337.28
         7856       1336.81
       7856.5       1336.34
         7857       1335.87
       7857.5        1335.4
         7858       1334.93
       7858.5       1334.46
         7859       1333.99
       7859.5       1333.52
         7860       1333.05
       7860.5       1332.58
         7861       1332.12
       7861.5       1331.65
         7862       1331.18
       7862.5       1330.71
         7863       1330.24
       7863.5       1329.78
         7864       1329.31
       7864.5       1328.84
         7865       1328.38
       7865.5       1327.91
         7866       1327.44
       7866.5       1326.98
         7867       1326.51
       7867.5       1326.05
         7868       1325.58
       7868.5       1325.11
         7869       1324.65
       7869.5       1324.18
         7870       1323.72
       7870.5       1323.25
         7871       1322.79
       7871.5       1322.33
         7872       1321.86
       7872.5        1321.4
         7873       1320.93
       7873.5       1320.47
         7874       1320.01
       7874.5       1319.54
         7875       1319.08
       7875.5       1318.62
         7876       1318.15
       7876.5       1317.69
         7877       1317.23
       7877.5       1316.77
         7878       1316.31
       7878.5       1315.84
         7879       1315.38
       7879.5       1314.92
         7880       1314.46
       7880.5          1314
         7881       1313.54
       7881.5       1313.08
         7882       1312.62
       7882.5       1312.16
         7883        1311.7
       7883.5       1311.24
         7884       1310.78
       7884.5       1310.32
         7885       1309.86
       7885.5        1309.4
         7886       1308.94
       7886.5       1308.48
         7887       1308.02
       7887.5       1307.56
         7888        1307.1
       7888.5       1306.65
         7889       1306.19
       7889.5       1305.73
         7890       1305.27
       7890.5       1304.82
         7891       1304.36
       7891.5        1303.9
         7892       1303.44
       7892.5       1302.99
         7893       1302.53
       7893.5       1302.07
         7894       1301.62
       7894.5       1301.16
         7895       1300.71
       7895.5       1300.25
         7896        1299.8
       7896.5       1299.34
         7897       1298.89
       7897.5       1298.43
         7898       1297.98
       7898.5       1297.52
         7899       1297.07
       7899.5       1296.61
         7900       1296.16
       7900.5        1295.7
         7901       1295.25
       7901.5        1294.8
         7902       1294.34
       7902.5       1293.89
         7903       1293.44
       7903.5       1292.99
         7904       1292.53
       7904.5       1292.08
         7905       1291.63
       7905.5       1291.18
         7906       1290.72
       7906.5       1290.27
         7907       1289.82
       7907.5       1289.37
         7908       1288.92
       7908.5       1288.47
         7909       1288.02
       7909.5       1287.57
         7910       1287.12
       7910.5       1286.67
         7911       1286.22
       7911.5       1285.77
         7912       1285.32
       7912.5       1284.87
         7913       1284.42
       7913.5       1283.97
         7914       1283.52
       7914.5       1283.07
         7915       1282.62
       7915.5       1282.17
         7916       1281.73
       7916.5       1281.28
         7917       1280.83
       7917.5       1280.38
         7918       1279.93
       7918.5       1279.49
         7919       1279.04
       7919.5       1278.59
         7920       1278.15
       7920.5        1277.7
         7921       1277.25
       7921.5       1276.81
         7922       1276.36
       7922.5       1275.91
         7923       1275.47
       7923.5       1275.02
         7924       1274.58
       7924.5       1274.13
         7925       1273.69
       7925.5       1273.24
         7926        1272.8
       7926.5       1272.35
         7927       1271.91
       7927.5       1271.46
         7928       1271.02
       7928.5       1270.58
         7929       1270.13
       7929.5       1269.69
         7930       1269.25
       7930.5        1268.8
         7931       1268.36
       7931.5       1267.92
         7932       1267.47
       7932.5       1267.03
         7933       1266.59
       7933.5       1266.15
         7934       1265.71
       7934.5       1265.26
         7935       1264.82
       7935.5       1264.38
         7936       1263.94
       7936.5        1263.5
         7937       1263.06
       7937.5       1262.62
         7938       1262.18
       7938.5       1261.74
         7939        1261.3
       7939.5       1260.86
         7940       1260.42
       7940.5       1259.98
         7941       1259.54
       7941.5        1259.1
         7942       1258.66
       7942.5       1258.22
         7943       1257.78
       7943.5       1257.34
         7944        1256.9
       7944.5       1256.46
         7945       1256.03
       7945.5       1255.59
         7946       1255.15
       7946.5       1254.71
         7947       1254.28
       7947.5       1253.84
         7948        1253.4
       7948.5       1252.96
         7949       1252.53
       7949.5       1252.09
         7950       1251.66
       7950.5       1251.22
         7951       1250.78
       7951.5       1250.35
         7952       1249.91
       7952.5       1249.48
         7953       1249.04
       7953.5       1248.61
         7954       1248.17
       7954.5       1247.74
         7955        1247.3
       7955.5       1246.87
         7956       1246.43
       7956.5          1246
         7957       1245.56
       7957.5       1245.13
         7958        1244.7
       7958.5       1244.26
         7959       1243.83
       7959.5        1243.4
         7960       1242.96
       7960.5       1242.53
         7961        1242.1
       7961.5       1241.67
         7962       1241.23
       7962.5        1240.8
         7963       1240.37
       7963.5       1239.94
         7964       1239.51
       7964.5       1239.07
         7965       1238.64
       7965.5       1238.21
         7966       1237.78
       7966.5       1237.35
         7967       1236.92
       7967.5       1236.49
         7968       1236.06
       7968.5       1235.63
         7969        1235.2
       7969.5       1234.77
         7970       1234.34
       7970.5       1233.91
         7971       1233.48
       7971.5       1233.05
         7972       1232.62
       7972.5       1232.19
         7973       1231.77
       7973.5       1231.34
         7974       1230.91
       7974.5       1230.48
         7975       1230.05
       7975.5       1229.63
         7976        1229.2
       7976.5       1228.77
         7977       1228.34
       7977.5       1227.92
         7978       1227.49
       7978.5       1227.06
         7979       1226.64
       7979.5       1226.21
         7980       1225.78
       7980.5       1225.36
         7981       1224.93
       7981.5       1224.51
         7982       1224.08
       7982.5       1223.66
         7983       1223.23
       7983.5       1222.81
         7984       1222.38
       7984.5       1221.96
         7985       1221.53
       7985.5       1221.11
         7986       1220.68
       7986.5       1220.26
         7987       1219.84
       7987.5       1219.41
         7988       1218.99
       7988.5       1218.56
         7989       1218.14
       7989.5       1217.72
         7990        1217.3
       7990.5       1216.87
         7991       1216.45
       7991.5       1216.03
         7992       1215.61
       7992.5       1215.18
         7993       1214.76
       7993.5       1214.34
         7994       1213.92
       7994.5        1213.5
         7995       1213.08
       7995.5       1212.66
         7996       1212.23
       7996.5       1211.81
         7997       1211.39
       7997.5       1210.97
         7998       1210.55
       7998.5       1210.13
         7999       1209.71
       7999.5       1209.29
         8000       1208.87
       8000.5       1208.45
         8001       1208.04
       8001.5       1207.62
         8002        1207.2
       8002.5       1206.78
         8003       1206.36
       8003.5       1205.94
         8004       1205.52
       8004.5       1205.11
         8005       1204.69
       8005.5       1204.27
         8006       1203.85
       8006.5       1203.43
         8007       1203.02
       8007.5        1202.6
         8008       1202.18
       8008.5       1201.77
         8009       1201.35
       8009.5       1200.93
         8010       1200.52
       8010.5        1200.1
         8011       1199.69
       8011.5       1199.27
         8012       1198.85
       8012.5       1198.44
         8013       1198.02
       8013.5       1197.61
         8014       1197.19
       8014.5       1196.78
         8015       1196.36
       8015.5       1195.95
         8016       1195.54
       8016.5       1195.12
         8017       1194.71
       8017.5       1194.29
         8018       1193.88
       8018.5       1193.47
         8019       1193.05
       8019.5       1192.64
         8020       1192.23
       8020.5       1191.81
         8021        1191.4
       8021.5       1190.99
         8022       1190.58
       8022.5       1190.16
         8023       1189.75
       8023.5       1189.34
         8024       1188.93
       8024.5       1188.52
         8025       1188.11
       8025.5       1187.69
         8026       1187.28
       8026.5       1186.87
         8027       1186.46
       8027.5       1186.05
         8028       1185.64
       8028.5       1185.23
         8029       1184.82
       8029.5       1184.41
         8030          1184
       8030.5       1183.59
         8031       1183.18
       8031.5       1182.77
         8032       1182.36
       8032.5       1181.95
         8033       1181.55
       8033.5       1181.14
         8034       1180.73