0.040000 
0.040000 
0.040000 
0.040000 
0.040000 
0.040000 
0.040000 
0.040000 
0.040000 
0.040000 
0.040000 
0.040000 
0.040000 
0.040000 
0.040000 
0.040000 
0.040000 
0.040000 
0.040000 
0.040000 
0.040000 
0.040000 
0.040000 
0.040000 
0.040000 
0.040000 
0.040000 
0.040000 
0.040000 
0.040000 
0.040000 
0.040000 
0.040000 
0.040000 
0.040000 
0.040000 
0.040000 
0.040000 
0.040000 
0.040000 
0.040000 
0.040000 
0.040000 
0.040000 
0.040000 
0.039999 
0.039997 
0.039991 
0.039978 
0.039939 
0.039863 
0.039732 
0.039527 
0.039179 
0.038672 
0.037969 
0.037036 
0.036425 
0.035734 
0.034959 
0.034100 
0.033155 
0.032124 
0.031011 
0.029819 
0.028570 
0.027258 
0.025889 
0.024475 
0.023341 
0.022191 
0.021033 
0.019872 
0.018716 
0.017570 
0.016442 
0.015337 
0.014303 
0.013301 
0.012334 
0.011407 
0.010629 
0.009885 
0.009177 
0.008505 
0.007884 
0.007298 
0.006748 
0.006232 
0.005776 
0.005349 
0.004951 
0.004581 
0.004288 
0.004014 
0.003756 
0.003516 
0.003294 
0.003087 
0.002894 
0.002714 
0.002540 
0.002380 
0.002231 
0.002093 
0.001953 
0.001824 
0.001706 
0.001598 
0.001477 
0.001368 
0.001270 
0.001182 
0.001093 
0.001013 
0.000942 
0.000878 
0.000830 
0.000785 
0.000745 
0.000707 
0.000670 
0.000637 
0.000606 
0.000578 
0.000548 
0.000522 
0.000498 
0.000476 
0.000449 
0.000426 
0.000405 
0.000386 
0.000368 
0.000352 
0.000337 
0.000323 
0.000321 
0.000318 
0.000316 
0.000314 
