# Probe 0 (0.05 0.05 0.005)
#       Probe             0
#        Time
       0.0001   8.06988e-12
       0.0002   1.37155e-10
       0.0003   7.21707e-10
       0.0004   2.33759e-09
       0.0005   5.84448e-09
       0.0006   1.23546e-08
       0.0007   2.32407e-08
       0.0008   4.01364e-08
       0.0009   6.49356e-08
        0.001   9.97932e-08
       0.0011   1.47125e-07
       0.0012   2.09606e-07
       0.0013   2.90173e-07
       0.0014   3.92024e-07
       0.0015   5.18616e-07
       0.0016   6.73669e-07
       0.0017   8.61159e-07
       0.0018   1.08533e-06
       0.0019   1.35067e-06
        0.002   1.66196e-06
       0.0021    2.0242e-06
       0.0022   2.44268e-06
       0.0023   2.92294e-06
       0.0024   3.47079e-06
       0.0025   4.09227e-06
       0.0026   4.79371e-06
       0.0027    5.5817e-06
       0.0028   6.46307e-06
       0.0029   7.44491e-06
        0.003   8.53459e-06
       0.0031   9.73973e-06
       0.0032   1.10682e-05
       0.0033   1.25281e-05
       0.0034   1.41279e-05
       0.0035   1.58761e-05
       0.0036   1.77818e-05
       0.0037    1.9854e-05
       0.0038   2.21022e-05
       0.0039   2.45361e-05
        0.004   2.71655e-05
       0.0041   3.00007e-05
       0.0042   3.30521e-05
       0.0043   3.63303e-05
       0.0044   3.98464e-05
       0.0045   4.36114e-05
       0.0046   4.76369e-05
       0.0047   5.19346e-05
       0.0048   5.65163e-05
       0.0049   6.13942e-05
        0.005   6.65808e-05
       0.0051   7.20888e-05
       0.0052    7.7931e-05
       0.0053   8.41207e-05
       0.0054   9.06711e-05
       0.0055    9.7596e-05
       0.0056   0.000104909
       0.0057   0.000112625
       0.0058   0.000120757
       0.0059   0.000129321
        0.006   0.000138331
       0.0061   0.000147802
       0.0062   0.000157749
       0.0063   0.000168188
       0.0064   0.000179135
       0.0065   0.000190605
       0.0066   0.000202614
       0.0067    0.00021518
       0.0068   0.000228318
       0.0069   0.000242045
        0.007   0.000256378
       0.0071   0.000271334
       0.0072   0.000286931
       0.0073   0.000303185
       0.0074   0.000320116
       0.0075    0.00033774
       0.0076   0.000356075
       0.0077    0.00037514
       0.0078   0.000394954
       0.0079   0.000415534
        0.008     0.0004369
       0.0081    0.00045907
       0.0082   0.000482063
       0.0083   0.000505898
       0.0084   0.000530596
       0.0085   0.000556174
       0.0086   0.000582653
       0.0087   0.000610052
       0.0088   0.000638392
       0.0089   0.000667691
        0.009    0.00069797
       0.0091   0.000729248
       0.0092   0.000761546
       0.0093   0.000794885
       0.0094   0.000829284
       0.0095   0.000864763
       0.0096   0.000901343
       0.0097   0.000939045
       0.0098   0.000977888
       0.0099    0.00101789
         0.01    0.00105908
       0.0101    0.00110147
       0.0102    0.00114509
       0.0103    0.00118994
       0.0104    0.00123607
       0.0105    0.00128347
       0.0106    0.00133219
       0.0107    0.00138222
       0.0108     0.0014336
       0.0109    0.00148635
        0.011    0.00154049
       0.0111    0.00159602
       0.0112    0.00165299
       0.0113    0.00171139
       0.0114    0.00177127
       0.0115    0.00183262
       0.0116    0.00189548
       0.0117    0.00195986
       0.0118    0.00202578
       0.0119    0.00209326
        0.012    0.00216231
       0.0121    0.00223296
       0.0122    0.00230523
       0.0123    0.00237912
       0.0124    0.00245467
       0.0125    0.00253188
       0.0126    0.00261077
       0.0127    0.00269136
       0.0128    0.00277366
       0.0129    0.00285769
        0.013    0.00294347
       0.0131    0.00303101
       0.0132    0.00312033
       0.0133    0.00321143
       0.0134    0.00330434
       0.0135    0.00339906
       0.0136    0.00349562
       0.0137    0.00359401
       0.0138    0.00369426
       0.0139    0.00379637
        0.014    0.00390036
       0.0141    0.00400624
       0.0142    0.00411401
       0.0143    0.00422369
       0.0144    0.00433528
       0.0145    0.00444879
       0.0146    0.00456423
       0.0147    0.00468161
       0.0148    0.00480093
       0.0149    0.00492219
        0.015    0.00504541
       0.0151    0.00517059
       0.0152    0.00529772
       0.0153    0.00542682
       0.0154    0.00555789
       0.0155    0.00569092
       0.0156    0.00582592
       0.0157    0.00596288
       0.0158    0.00610181
       0.0159    0.00624271
        0.016    0.00638556
       0.0161    0.00653038
       0.0162    0.00667714
       0.0163    0.00682586
       0.0164    0.00697652
       0.0165    0.00712911
       0.0166    0.00728364
       0.0167    0.00744008
       0.0168    0.00759844
       0.0169     0.0077587
        0.017    0.00792084
       0.0171    0.00808487
       0.0172    0.00825076
       0.0173     0.0084185
       0.0174    0.00858807
       0.0175    0.00875947
       0.0176    0.00893268
       0.0177    0.00910767
       0.0178    0.00928443
       0.0179    0.00946293
        0.018    0.00964317
       0.0181    0.00982512
       0.0182     0.0100088
       0.0183      0.010194
       0.0184      0.010381
       0.0185     0.0105695
       0.0186     0.0107597
       0.0187     0.0109514
       0.0188     0.0111446
       0.0189     0.0113394
        0.019     0.0115356
       0.0191     0.0117333
       0.0192     0.0119324
       0.0193     0.0121328
       0.0194     0.0123347
       0.0195     0.0125378
       0.0196     0.0127423
       0.0197     0.0129479
       0.0198     0.0131548
       0.0199     0.0133629
         0.02     0.0135721
       0.0201     0.0137825
       0.0202     0.0139939
       0.0203     0.0142063
       0.0204     0.0144197
       0.0205      0.014634
       0.0206     0.0148493
       0.0207     0.0150654
       0.0208     0.0152823
       0.0209     0.0155001
        0.021     0.0157185
       0.0211     0.0159376
       0.0212     0.0161574
       0.0213     0.0163778
       0.0214     0.0165987
       0.0215     0.0168202
       0.0216     0.0170421
       0.0217     0.0172644
       0.0218     0.0174871
       0.0219     0.0177101
        0.022     0.0179334
       0.0221      0.018157
       0.0222     0.0183807
       0.0223     0.0186045
       0.0224     0.0188284
       0.0225     0.0190524
       0.0226     0.0192763
       0.0227     0.0195002
       0.0228      0.019724
       0.0229     0.0199476
        0.023     0.0201711
       0.0231     0.0203943
       0.0232     0.0206171
       0.0233     0.0208397
       0.0234     0.0210618
       0.0235     0.0212835
       0.0236     0.0215047
       0.0237     0.0217254
       0.0238     0.0219455
       0.0239      0.022165
        0.024     0.0223838
       0.0241      0.022602
       0.0242     0.0228193
       0.0243     0.0230358
       0.0244     0.0232515
       0.0245     0.0234664
       0.0246     0.0236802
       0.0247     0.0238931
       0.0248      0.024105
       0.0249     0.0243159
        0.025     0.0245257
       0.0251     0.0247343
       0.0252     0.0249417
       0.0253      0.025148
       0.0254      0.025353
       0.0255     0.0255567
       0.0256     0.0257591
       0.0257     0.0259602
       0.0258     0.0261599
       0.0259     0.0263582
        0.026      0.026555
       0.0261     0.0267504
       0.0262     0.0269443
       0.0263     0.0271366
       0.0264     0.0273274
       0.0265     0.0275166
       0.0266     0.0277042
       0.0267     0.0278901
       0.0268     0.0280744
       0.0269     0.0282571
        0.027      0.028438
       0.0271     0.0286172
       0.0272     0.0287946
       0.0273     0.0289703
       0.0274     0.0291442
       0.0275     0.0293164
       0.0276     0.0294867
       0.0277     0.0296552
       0.0278     0.0298218
       0.0279     0.0299867
        0.028     0.0301496
       0.0281     0.0303107
       0.0282     0.0304699
       0.0283     0.0306272
       0.0284     0.0307827
       0.0285     0.0309362
       0.0286     0.0310879
       0.0287     0.0312376
       0.0288     0.0313854
       0.0289     0.0315313
        0.029     0.0316753
       0.0291     0.0318174
       0.0292     0.0319576
       0.0293     0.0320958
       0.0294     0.0322322
       0.0295     0.0323666
       0.0296     0.0324992
       0.0297     0.0326298
       0.0298     0.0327586
       0.0299     0.0328854
         0.03     0.0330104
       0.0301     0.0331335
       0.0302     0.0332548
       0.0303     0.0333742
       0.0304     0.0334917
       0.0305     0.0336075
       0.0306     0.0337214
       0.0307     0.0338334
       0.0308     0.0339437
       0.0309     0.0340522
        0.031      0.034159
       0.0311      0.034264
       0.0312     0.0343672
       0.0313     0.0344687
       0.0314     0.0345685
       0.0315     0.0346666
       0.0316      0.034763
       0.0317     0.0348577
       0.0318     0.0349508
       0.0319     0.0350423
        0.032     0.0351321
       0.0321     0.0352204
       0.0322     0.0353071
       0.0323     0.0353922
       0.0324     0.0354758
       0.0325     0.0355578
       0.0326     0.0356384
       0.0327     0.0357174
       0.0328      0.035795
       0.0329     0.0358712
        0.033     0.0359459
       0.0331     0.0360192
       0.0332     0.0360911
       0.0333     0.0361617
       0.0334     0.0362309
       0.0335     0.0362988
       0.0336     0.0363654
       0.0337     0.0364307
       0.0338     0.0364947
       0.0339     0.0365574
        0.034      0.036619
       0.0341     0.0366793
       0.0342     0.0367384
       0.0343     0.0367964
       0.0344     0.0368532
       0.0345     0.0369089
       0.0346     0.0369635
       0.0347      0.037017
       0.0348     0.0370694
       0.0349     0.0371207
        0.035      0.037171
       0.0351     0.0372203
       0.0352     0.0372686
       0.0353     0.0373159
       0.0354     0.0373622
       0.0355     0.0374076
       0.0356     0.0374521
       0.0357     0.0374957
       0.0358     0.0375383
       0.0359     0.0375801
        0.036      0.037621
       0.0361     0.0376611
       0.0362     0.0377004
       0.0363     0.0377388
       0.0364     0.0377765
       0.0365     0.0378134
       0.0366     0.0378495
       0.0367     0.0378848
       0.0368     0.0379195
       0.0369     0.0379534
        0.037     0.0379866
       0.0371     0.0380191
       0.0372      0.038051
       0.0373     0.0380822
       0.0374     0.0381127
       0.0375     0.0381426
       0.0376     0.0381719
       0.0377     0.0382006
       0.0378     0.0382287
       0.0379     0.0382562
        0.038     0.0382832
       0.0381     0.0383096
       0.0382     0.0383354
       0.0383     0.0383607
       0.0384     0.0383855
       0.0385     0.0384098
       0.0386     0.0384335
       0.0387     0.0384568
       0.0388     0.0384797
       0.0389      0.038502
        0.039     0.0385239
       0.0391     0.0385453
       0.0392     0.0385663
       0.0393     0.0385869
       0.0394     0.0386071
       0.0395     0.0386268
       0.0396     0.0386462
       0.0397     0.0386652
       0.0398     0.0386837
       0.0399     0.0387019
         0.04     0.0387198
       0.0401     0.0387373
       0.0402     0.0387544
       0.0403     0.0387712
       0.0404     0.0387876
       0.0405     0.0388038
       0.0406     0.0388196
       0.0407     0.0388351
       0.0408     0.0388503
       0.0409     0.0388652
        0.041     0.0388798
       0.0411     0.0388941
       0.0412     0.0389082
       0.0413     0.0389219
       0.0414     0.0389354
       0.0415     0.0389487
       0.0416     0.0389617
       0.0417     0.0389744
       0.0418     0.0389869
       0.0419     0.0389991
        0.042     0.0390112
       0.0421      0.039023
       0.0422     0.0390345
       0.0423     0.0390459
       0.0424      0.039057
       0.0425      0.039068
       0.0426     0.0390787
       0.0427     0.0390892
       0.0428     0.0390995
       0.0429     0.0391097
        0.043     0.0391196
       0.0431     0.0391294
       0.0432      0.039139
       0.0433     0.0391484
       0.0434     0.0391577
       0.0435     0.0391668
       0.0436     0.0391757
       0.0437     0.0391844
       0.0438      0.039193
       0.0439     0.0392015
        0.044     0.0392098
       0.0441     0.0392179
       0.0442      0.039226
       0.0443     0.0392338
       0.0444     0.0392416
       0.0445     0.0392492
       0.0446     0.0392566
       0.0447      0.039264
       0.0448     0.0392712
       0.0449     0.0392783
        0.045     0.0392852
       0.0451     0.0392921
       0.0452     0.0392988
       0.0453     0.0393054
       0.0454     0.0393119
       0.0455     0.0393183
       0.0456     0.0393246
       0.0457     0.0393308
       0.0458     0.0393369
       0.0459     0.0393429
        0.046     0.0393488
       0.0461     0.0393546
       0.0462     0.0393603
       0.0463     0.0393659
       0.0464     0.0393714
       0.0465     0.0393768
       0.0466     0.0393822
       0.0467     0.0393874
       0.0468     0.0393926
       0.0469     0.0393977
        0.047     0.0394027
       0.0471     0.0394076
       0.0472     0.0394125
       0.0473     0.0394173
       0.0474      0.039422
       0.0475     0.0394266
       0.0476     0.0394312
       0.0477     0.0394357
       0.0478     0.0394401
       0.0479     0.0394445
        0.048     0.0394488
       0.0481      0.039453
       0.0482     0.0394572
       0.0483     0.0394613
       0.0484     0.0394653
       0.0485     0.0394693
       0.0486     0.0394732
       0.0487     0.0394771
       0.0488     0.0394809
       0.0489     0.0394847
        0.049     0.0394884
       0.0491      0.039492
       0.0492     0.0394956
       0.0493     0.0394992
       0.0494     0.0395027
       0.0495     0.0395061
       0.0496     0.0395095
       0.0497     0.0395129
       0.0498     0.0395162
       0.0499     0.0395194
         0.05     0.0395227
       0.0501     0.0395258
       0.0502      0.039529
       0.0503      0.039532
       0.0504     0.0395351
       0.0505     0.0395381
       0.0506     0.0395411
       0.0507      0.039544
       0.0508     0.0395469
       0.0509     0.0395497
        0.051     0.0395525
       0.0511     0.0395553
       0.0512      0.039558
       0.0513     0.0395607
       0.0514     0.0395634
       0.0515      0.039566
       0.0516     0.0395686
       0.0517     0.0395712
       0.0518     0.0395737
       0.0519     0.0395762
        0.052     0.0395787
       0.0521     0.0395811
       0.0522     0.0395835
       0.0523     0.0395859
       0.0524     0.0395883
       0.0525     0.0395906
       0.0526     0.0395929
       0.0527     0.0395951
       0.0528     0.0395974
       0.0529     0.0395996
        0.053     0.0396017
       0.0531     0.0396039
       0.0532      0.039606
       0.0533     0.0396081
       0.0534     0.0396102
       0.0535     0.0396123
       0.0536     0.0396143
       0.0537     0.0396163
       0.0538     0.0396183
       0.0539     0.0396202
        0.054     0.0396222
       0.0541     0.0396241
       0.0542      0.039626
       0.0543     0.0396278
       0.0544     0.0396297
       0.0545     0.0396315
       0.0546     0.0396333
       0.0547     0.0396351
       0.0548     0.0396369
       0.0549     0.0396386
        0.055     0.0396404
       0.0551     0.0396421
       0.0552     0.0396438
       0.0553     0.0396454
       0.0554     0.0396471
       0.0555     0.0396487
       0.0556     0.0396503
       0.0557     0.0396519
       0.0558     0.0396535
       0.0559     0.0396551
        0.056     0.0396566
       0.0561     0.0396582
       0.0562     0.0396597
       0.0563     0.0396612
       0.0564     0.0396627
       0.0565     0.0396641
       0.0566     0.0396656
       0.0567      0.039667
       0.0568     0.0396685
       0.0569     0.0396699
        0.057     0.0396713
       0.0571     0.0396726
       0.0572      0.039674
       0.0573     0.0396754
       0.0574     0.0396767
       0.0575      0.039678
       0.0576     0.0396793
       0.0577     0.0396806
       0.0578     0.0396819
       0.0579     0.0396832
        0.058     0.0396845
       0.0581     0.0396857
       0.0582     0.0396869
       0.0583     0.0396882
       0.0584     0.0396894
       0.0585     0.0396906
       0.0586     0.0396918
       0.0587     0.0396929
       0.0588     0.0396941
       0.0589     0.0396953
        0.059     0.0396964
       0.0591     0.0396975
       0.0592     0.0396987
       0.0593     0.0396998
       0.0594     0.0397009
       0.0595      0.039702
       0.0596     0.0397031
       0.0597     0.0397041
       0.0598     0.0397052
       0.0599     0.0397063
         0.06     0.0397073
       0.0601     0.0397083
       0.0602     0.0397094
       0.0603     0.0397104
       0.0604     0.0397114
       0.0605     0.0397124
       0.0606     0.0397134
       0.0607     0.0397143
       0.0608     0.0397153
       0.0609     0.0397163
        0.061     0.0397172
       0.0611     0.0397182
       0.0612     0.0397191
       0.0613       0.03972
       0.0614      0.039721
       0.0615     0.0397219
       0.0616     0.0397228
       0.0617     0.0397237
       0.0618     0.0397246
       0.0619     0.0397254
        0.062     0.0397263
       0.0621     0.0397272
       0.0622      0.039728
       0.0623     0.0397289
       0.0624     0.0397297
       0.0625     0.0397306
       0.0626     0.0397314
       0.0627     0.0397322
       0.0628     0.0397331
       0.0629     0.0397339
        0.063     0.0397347
       0.0631     0.0397355
       0.0632     0.0397363
       0.0633     0.0397371
       0.0634     0.0397378
       0.0635     0.0397386
       0.0636     0.0397394
       0.0637     0.0397401
       0.0638     0.0397409
       0.0639     0.0397416
        0.064     0.0397424
       0.0641     0.0397431
       0.0642     0.0397438
       0.0643     0.0397446
       0.0644     0.0397453
       0.0645      0.039746
       0.0646     0.0397467
       0.0647     0.0397474
       0.0648     0.0397481
       0.0649     0.0397488
        0.065     0.0397495
       0.0651     0.0397502
       0.0652     0.0397509
       0.0653     0.0397515
       0.0654     0.0397522
       0.0655     0.0397529
       0.0656     0.0397535
       0.0657     0.0397542
       0.0658     0.0397548
       0.0659     0.0397555
        0.066     0.0397561
       0.0661     0.0397567
       0.0662     0.0397574
       0.0663      0.039758
       0.0664     0.0397586
       0.0665     0.0397592
       0.0666     0.0397598
       0.0667     0.0397604
       0.0668      0.039761
       0.0669     0.0397616
        0.067     0.0397622
       0.0671     0.0397628
       0.0672     0.0397634
       0.0673      0.039764
       0.0674     0.0397646
       0.0675     0.0397651
       0.0676     0.0397657
       0.0677     0.0397663
       0.0678     0.0397668
       0.0679     0.0397674
        0.068     0.0397679
       0.0681     0.0397685
       0.0682      0.039769
       0.0683     0.0397696
       0.0684     0.0397701
       0.0685     0.0397706
       0.0686     0.0397712
       0.0687     0.0397717
       0.0688     0.0397722
       0.0689     0.0397727
        0.069     0.0397733
       0.0691     0.0397738
       0.0692     0.0397743
       0.0693     0.0397748
       0.0694     0.0397753
       0.0695     0.0397758
       0.0696     0.0397763
       0.0697     0.0397768
       0.0698     0.0397773
       0.0699     0.0397777
         0.07     0.0397782
       0.0701     0.0397787
       0.0702     0.0397792
       0.0703     0.0397797
       0.0704     0.0397801
       0.0705     0.0397806
       0.0706     0.0397811
       0.0707     0.0397815
       0.0708      0.039782
       0.0709     0.0397824
        0.071     0.0397829
       0.0711     0.0397833
       0.0712     0.0397838
       0.0713     0.0397842
       0.0714     0.0397847
       0.0715     0.0397851
       0.0716     0.0397856
       0.0717      0.039786
       0.0718     0.0397864
       0.0719     0.0397869
        0.072     0.0397873
       0.0721     0.0397877
       0.0722     0.0397881
       0.0723     0.0397885
       0.0724      0.039789
       0.0725     0.0397894
       0.0726     0.0397898
       0.0727     0.0397902
       0.0728     0.0397906
       0.0729      0.039791
        0.073     0.0397914
       0.0731     0.0397918
       0.0732     0.0397922
       0.0733     0.0397926
       0.0734      0.039793
       0.0735     0.0397934
       0.0736     0.0397938
       0.0737     0.0397941
       0.0738     0.0397945
       0.0739     0.0397949
        0.074     0.0397953
       0.0741     0.0397957
       0.0742      0.039796
       0.0743     0.0397964
       0.0744     0.0397968
       0.0745     0.0397971
       0.0746     0.0397975
       0.0747     0.0397979
       0.0748     0.0397982
       0.0749     0.0397986
        0.075      0.039799
       0.0751     0.0397993
       0.0752     0.0397997
       0.0753        0.0398
       0.0754     0.0398004
       0.0755     0.0398007
       0.0756     0.0398011
       0.0757     0.0398014
       0.0758     0.0398017
       0.0759     0.0398021
        0.076     0.0398024
       0.0761     0.0398028
       0.0762     0.0398031
       0.0763     0.0398034
       0.0764     0.0398038
       0.0765     0.0398041
       0.0766     0.0398044
       0.0767     0.0398047
       0.0768     0.0398051
       0.0769     0.0398054
        0.077     0.0398057
       0.0771      0.039806
       0.0772     0.0398063
       0.0773     0.0398067
       0.0774      0.039807
       0.0775     0.0398073
       0.0776     0.0398076
       0.0777     0.0398079
       0.0778     0.0398082
       0.0779     0.0398085
        0.078     0.0398088
       0.0781     0.0398091
       0.0782     0.0398094
       0.0783     0.0398097
       0.0784       0.03981
       0.0785     0.0398103
       0.0786     0.0398106
       0.0787     0.0398109
       0.0788     0.0398112
       0.0789     0.0398115
        0.079     0.0398118
       0.0791     0.0398121
       0.0792     0.0398123
       0.0793     0.0398126
       0.0794     0.0398129
       0.0795     0.0398132
       0.0796     0.0398135
       0.0797     0.0398137
       0.0798      0.039814
       0.0799     0.0398143
         0.08     0.0398146
       0.0801     0.0398148
       0.0802     0.0398151
       0.0803     0.0398154
       0.0804     0.0398157
       0.0805     0.0398159
       0.0806     0.0398162
       0.0807     0.0398165
       0.0808     0.0398167
       0.0809      0.039817
        0.081     0.0398172
       0.0811     0.0398175
       0.0812     0.0398178
       0.0813      0.039818
       0.0814     0.0398183
       0.0815     0.0398185
       0.0816     0.0398188
       0.0817      0.039819
       0.0818     0.0398193
       0.0819     0.0398195
        0.082     0.0398198
       0.0821       0.03982
       0.0822     0.0398203
       0.0823     0.0398205
       0.0824     0.0398208
       0.0825      0.039821
       0.0826     0.0398213
       0.0827     0.0398215
       0.0828     0.0398218
       0.0829      0.039822
        0.083     0.0398222
       0.0831     0.0398225
       0.0832     0.0398227
       0.0833     0.0398229
       0.0834     0.0398232
       0.0835     0.0398234
       0.0836     0.0398236
       0.0837     0.0398239
       0.0838     0.0398241
       0.0839     0.0398243
        0.084     0.0398246
       0.0841     0.0398248
       0.0842      0.039825
       0.0843     0.0398252
       0.0844     0.0398255
       0.0845     0.0398257
       0.0846     0.0398259
       0.0847     0.0398261
       0.0848     0.0398263
       0.0849     0.0398266
        0.085     0.0398268
       0.0851      0.039827
       0.0852     0.0398272
       0.0853     0.0398274
       0.0854     0.0398276
       0.0855     0.0398278
       0.0856     0.0398281
       0.0857     0.0398283
       0.0858     0.0398285
       0.0859     0.0398287
        0.086     0.0398289
       0.0861     0.0398291
       0.0862     0.0398293
       0.0863     0.0398295
       0.0864     0.0398297
