# Probe 0 (0.05 0.05 0.005)
#       Probe             0
#        Time
       0.0001          0.04
       0.0002          0.04
       0.0003          0.04
       0.0004          0.04
       0.0005          0.04
       0.0006          0.04
       0.0007          0.04
       0.0008     0.0399999
       0.0009     0.0399999
        0.001     0.0399999
       0.0011     0.0399998
       0.0012     0.0399998
       0.0013     0.0399997
       0.0014     0.0399996
       0.0015     0.0399995
       0.0016     0.0399993
       0.0017     0.0399991
       0.0018     0.0399989
       0.0019     0.0399986
        0.002     0.0399983
       0.0021      0.039998
       0.0022     0.0399975
       0.0023     0.0399971
       0.0024     0.0399965
       0.0025     0.0399959
       0.0026     0.0399952
       0.0027     0.0399944
       0.0028     0.0399935
       0.0029     0.0399925
        0.003     0.0399914
       0.0031     0.0399902
       0.0032     0.0399889
       0.0033     0.0399875
       0.0034     0.0399859
       0.0035     0.0399841
       0.0036     0.0399822
       0.0037     0.0399801
       0.0038     0.0399779
       0.0039     0.0399754
        0.004     0.0399728
       0.0041       0.03997
       0.0042     0.0399669
       0.0043     0.0399637
       0.0044     0.0399601
       0.0045     0.0399564
       0.0046     0.0399523
       0.0047      0.039948
       0.0048     0.0399435
       0.0049     0.0399386
        0.005     0.0399334
       0.0051     0.0399279
       0.0052     0.0399221
       0.0053     0.0399159
       0.0054     0.0399093
       0.0055     0.0399024
       0.0056     0.0398951
       0.0057     0.0398874
       0.0058     0.0398792
       0.0059     0.0398707
        0.006     0.0398617
       0.0061     0.0398522
       0.0062     0.0398422
       0.0063     0.0398318
       0.0064     0.0398208
       0.0065     0.0398094
       0.0066     0.0397974
       0.0067     0.0397848
       0.0068     0.0397717
       0.0069     0.0397579
        0.007     0.0397436
       0.0071     0.0397286
       0.0072     0.0397131
       0.0073     0.0396968
       0.0074     0.0396799
       0.0075     0.0396622
       0.0076     0.0396439
       0.0077     0.0396248
       0.0078      0.039605
       0.0079     0.0395844
        0.008     0.0395631
       0.0081     0.0395409
       0.0082     0.0395179
       0.0083     0.0394941
       0.0084     0.0394694
       0.0085     0.0394438
       0.0086     0.0394173
       0.0087     0.0393899
       0.0088     0.0393616
       0.0089     0.0393323
        0.009      0.039302
       0.0091     0.0392707
       0.0092     0.0392384
       0.0093     0.0392051
       0.0094     0.0391707
       0.0095     0.0391352
       0.0096     0.0390986
       0.0097     0.0390609
       0.0098     0.0390221
       0.0099     0.0389821
         0.01     0.0389409
       0.0101     0.0388985
       0.0102     0.0388549
       0.0103       0.03881
       0.0104     0.0387639
       0.0105     0.0387165
       0.0106     0.0386678
       0.0107     0.0386178
       0.0108     0.0385664
       0.0109     0.0385136
        0.011     0.0384595
       0.0111      0.038404
       0.0112      0.038347
       0.0113     0.0382886
       0.0114     0.0382287
       0.0115     0.0381674
       0.0116     0.0381045
       0.0117     0.0380401
       0.0118     0.0379742
       0.0119     0.0379067
        0.012     0.0378377
       0.0121      0.037767
       0.0122     0.0376948
       0.0123     0.0376209
       0.0124     0.0375453
       0.0125     0.0374681
       0.0126     0.0373892
       0.0127     0.0373086
       0.0128     0.0372263
       0.0129     0.0371423
        0.013     0.0370565
       0.0131      0.036969
       0.0132     0.0368797
       0.0133     0.0367885
       0.0134     0.0366956
       0.0135     0.0366009
       0.0136     0.0365044
       0.0137      0.036406
       0.0138     0.0363057
       0.0139     0.0362036
        0.014     0.0360996
       0.0141     0.0359937
       0.0142      0.035886
       0.0143     0.0357763
       0.0144     0.0356647
       0.0145     0.0355512
       0.0146     0.0354358
       0.0147     0.0353184
       0.0148     0.0351991
       0.0149     0.0350778
        0.015     0.0349546
       0.0151     0.0348294
       0.0152     0.0347023
       0.0153     0.0345732
       0.0154     0.0344421
       0.0155     0.0343091
       0.0156     0.0341741
       0.0157     0.0340371
       0.0158     0.0338982
       0.0159     0.0337573
        0.016     0.0336144
       0.0161     0.0334696
       0.0162     0.0333228
       0.0163     0.0331741
       0.0164     0.0330235
       0.0165     0.0328709
       0.0166     0.0327163
       0.0167     0.0325599
       0.0168     0.0324015
       0.0169     0.0322413
        0.017     0.0320791
       0.0171     0.0319151
       0.0172     0.0317492
       0.0173     0.0315815
       0.0174     0.0314119
       0.0175     0.0312405
       0.0176     0.0310673
       0.0177     0.0308923
       0.0178     0.0307156
       0.0179      0.030537
        0.018     0.0303568
       0.0181     0.0301749
       0.0182     0.0299912
       0.0183     0.0298059
       0.0184      0.029619
       0.0185     0.0294304
       0.0186     0.0292403
       0.0187     0.0290486
       0.0188     0.0288554
       0.0189     0.0286606
        0.019     0.0284644
       0.0191     0.0282667
       0.0192     0.0280676
       0.0193     0.0278671
       0.0194     0.0276653
       0.0195     0.0274622
       0.0196     0.0272577
       0.0197      0.027052
       0.0198     0.0268451
       0.0199     0.0266371
         0.02     0.0264278
       0.0201     0.0262175
       0.0202     0.0260061
       0.0203     0.0257937
       0.0204     0.0255803
       0.0205     0.0253659
       0.0206     0.0251507
       0.0207     0.0249346
       0.0208     0.0247176
       0.0209     0.0244999
        0.021     0.0242815
       0.0211     0.0240623
       0.0212     0.0238426
       0.0213     0.0236222
       0.0214     0.0234012
       0.0215     0.0231798
       0.0216     0.0229579
       0.0217     0.0227356
       0.0218     0.0225129
       0.0219     0.0222898
        0.022     0.0220665
       0.0221      0.021843
       0.0222     0.0216193
       0.0223     0.0213955
       0.0224     0.0211716
       0.0225     0.0209476
       0.0226     0.0207236
       0.0227     0.0204998
       0.0228      0.020276
       0.0229     0.0200523
        0.023     0.0198289
       0.0231     0.0196057
       0.0232     0.0193828
       0.0233     0.0191603
       0.0234     0.0189382
       0.0235     0.0187165
       0.0236     0.0184952
       0.0237     0.0182745
       0.0238     0.0180544
       0.0239      0.017835
        0.024     0.0176161
       0.0241      0.017398
       0.0242     0.0171807
       0.0243     0.0169641
       0.0244     0.0167484
       0.0245     0.0165336
       0.0246     0.0163197
       0.0247     0.0161068
       0.0248     0.0158949
       0.0249     0.0156841
        0.025     0.0154743
       0.0251     0.0152657
       0.0252     0.0150583
       0.0253      0.014852
       0.0254      0.014647
       0.0255     0.0144433
       0.0256     0.0142408
       0.0257     0.0140398
       0.0258     0.0138401
       0.0259     0.0136418
        0.026     0.0134449
       0.0261     0.0132496
       0.0262     0.0130557
       0.0263     0.0128634
       0.0264     0.0126726
       0.0265     0.0124834
       0.0266     0.0122958
       0.0267     0.0121098
       0.0268     0.0119255
       0.0269     0.0117429
        0.027      0.011562
       0.0271     0.0113828
       0.0272     0.0112054
       0.0273     0.0110297
       0.0274     0.0108558
       0.0275     0.0106836
       0.0276     0.0105133
       0.0277     0.0103448
       0.0278     0.0101781
       0.0279     0.0100133
        0.028    0.00985037
       0.0281    0.00968928
       0.0282    0.00953007
       0.0283    0.00937274
       0.0284     0.0092173
       0.0285    0.00906376
       0.0286    0.00891212
       0.0287    0.00876238
       0.0288    0.00861456
       0.0289    0.00846865
        0.029    0.00832466
       0.0291    0.00818257
       0.0292     0.0080424
       0.0293    0.00790414
       0.0294     0.0077678
       0.0295    0.00763335
       0.0296    0.00750081
       0.0297    0.00737017
       0.0298    0.00724142
       0.0299    0.00711456
         0.03    0.00698957
       0.0301    0.00686646
       0.0302     0.0067452
       0.0303    0.00662581
       0.0304    0.00650825
       0.0305    0.00639253
       0.0306    0.00627863
       0.0307    0.00616654
       0.0308    0.00605625
       0.0309    0.00594774
        0.031    0.00584101
       0.0311    0.00573603
       0.0312     0.0056328
       0.0313    0.00553129
       0.0314     0.0054315
       0.0315    0.00533341
       0.0316      0.005237
       0.0317    0.00514226
       0.0318    0.00504916
       0.0319     0.0049577
        0.032    0.00486785
       0.0321    0.00477959
       0.0322    0.00469291
       0.0323     0.0046078
       0.0324    0.00452422
       0.0325    0.00444217
       0.0326    0.00436162
       0.0327    0.00428256
       0.0328    0.00420497
       0.0329    0.00412881
        0.033    0.00405409
       0.0331    0.00398077
       0.0332    0.00390885
       0.0333    0.00383829
       0.0334    0.00376907
       0.0335    0.00370119
       0.0336    0.00363461
       0.0337    0.00356933
       0.0338    0.00350531
       0.0339    0.00344254
        0.034    0.00338101
       0.0341    0.00332068
       0.0342    0.00326154
       0.0343    0.00320358
       0.0344    0.00314676
       0.0345    0.00309108
       0.0346    0.00303651
       0.0347    0.00298303
       0.0348    0.00293063
       0.0349    0.00287928
        0.035    0.00282897
       0.0351    0.00277968
       0.0352     0.0027314
       0.0353    0.00268409
       0.0354    0.00263774
       0.0355    0.00259235
       0.0356    0.00254788
       0.0357    0.00250432
       0.0358    0.00246165
       0.0359    0.00241987
        0.036    0.00237894
       0.0361    0.00233885
       0.0362    0.00229959
       0.0363    0.00226114
       0.0364    0.00222349
       0.0365    0.00218661
       0.0366     0.0021505
       0.0367    0.00211513
       0.0368     0.0020805
       0.0369    0.00204658
        0.037    0.00201337
       0.0371    0.00198085
       0.0372    0.00194899
       0.0373     0.0019178
       0.0374    0.00188726
       0.0375    0.00185735
       0.0376    0.00182805
       0.0377    0.00179937
       0.0378    0.00177127
       0.0379    0.00174376
        0.038    0.00171682
       0.0381    0.00169043
       0.0382    0.00166459
       0.0383    0.00163928
       0.0384    0.00161449
       0.0385    0.00159021
       0.0386    0.00156643
       0.0387    0.00154314
       0.0388    0.00152033
       0.0389    0.00149798
        0.039    0.00147609
       0.0391    0.00145465
       0.0392    0.00143364
       0.0393    0.00141306
       0.0394     0.0013929
       0.0395    0.00137315
       0.0396    0.00135379
       0.0397    0.00133483
       0.0398    0.00131625
       0.0399    0.00129804
         0.04     0.0012802
       0.0401    0.00126272
       0.0402    0.00124559
       0.0403    0.00122879
       0.0404    0.00121233
       0.0405     0.0011962
       0.0406    0.00118039
       0.0407    0.00116489
       0.0408    0.00114969
       0.0409    0.00113479
        0.041    0.00112019
       0.0411    0.00110587
       0.0412    0.00109183
       0.0413    0.00107806
       0.0414    0.00106456
       0.0415    0.00105131
       0.0416    0.00103833
       0.0417    0.00102559
       0.0418     0.0010131
       0.0419    0.00100084
        0.042   0.000988821
       0.0421   0.000977027
       0.0422   0.000965456
       0.0423   0.000954102
       0.0424   0.000942962
       0.0425   0.000932031
       0.0426   0.000921303
       0.0427   0.000910775
       0.0428   0.000900441
       0.0429   0.000890299
        0.043   0.000880343
       0.0431   0.000870569
       0.0432   0.000860974
       0.0433   0.000851553
       0.0434   0.000842303
       0.0435   0.000833221
       0.0436   0.000824301
       0.0437   0.000815542
       0.0438   0.000806939
       0.0439    0.00079849
        0.044    0.00079019
       0.0441   0.000782036
       0.0442   0.000774027
       0.0443   0.000766157
       0.0444   0.000758425
       0.0445   0.000750827
       0.0446   0.000743361
       0.0447   0.000736024
       0.0448   0.000728813
       0.0449   0.000721725
        0.045   0.000714758
       0.0451    0.00070791
       0.0452   0.000701177
       0.0453   0.000694558
       0.0454    0.00068805
       0.0455    0.00068165
       0.0456   0.000675357
       0.0457   0.000669168
       0.0458   0.000663081
       0.0459   0.000657095
        0.046   0.000651206
       0.0461   0.000645413
       0.0462   0.000639714
       0.0463   0.000634108
       0.0464   0.000628591
       0.0465   0.000623163
       0.0466   0.000617822
       0.0467   0.000612565
       0.0468   0.000607392
       0.0469     0.0006023
        0.047   0.000597288
       0.0471   0.000592354
       0.0472   0.000587497
       0.0473   0.000582715
       0.0474   0.000578007
       0.0475   0.000573371
       0.0476   0.000568806
       0.0477   0.000564311
       0.0478   0.000559883
       0.0479   0.000555523
        0.048   0.000551228
       0.0481   0.000546997
       0.0482   0.000542829
       0.0483   0.000538723
       0.0484   0.000534678
       0.0485   0.000530692
       0.0486   0.000526765
       0.0487   0.000522894
       0.0488    0.00051908
       0.0489   0.000515321
        0.049   0.000511616
       0.0491   0.000507964
       0.0492   0.000504365
       0.0493   0.000500816
       0.0494   0.000497317
       0.0495   0.000493868
       0.0496   0.000490467
       0.0497   0.000487113
       0.0498   0.000483806
       0.0499   0.000480545
         0.05   0.000477329
       0.0501   0.000474156
       0.0502   0.000471027
       0.0503   0.000467941
       0.0504   0.000464896
       0.0505   0.000461892
       0.0506   0.000458929
       0.0507   0.000456005
       0.0508    0.00045312
       0.0509   0.000450273
        0.051   0.000447464
       0.0511   0.000444692
       0.0512   0.000441955
       0.0513   0.000439255
       0.0514   0.000436589
       0.0515   0.000433958
       0.0516    0.00043136
       0.0517   0.000428796
       0.0518   0.000426264
       0.0519   0.000423765
        0.052   0.000421297
       0.0521    0.00041886
       0.0522   0.000416453
       0.0523   0.000414076
       0.0524   0.000411729
       0.0525   0.000409411
       0.0526   0.000407122
       0.0527    0.00040486
       0.0528   0.000402626
       0.0529   0.000400419
        0.053   0.000398239
       0.0531   0.000396085
       0.0532   0.000393957
       0.0533   0.000391854
       0.0534   0.000389776
       0.0535   0.000387723
       0.0536   0.000385694
       0.0537   0.000383689
       0.0538   0.000381707
       0.0539   0.000379748
        0.054   0.000377812
       0.0541   0.000375898
       0.0542   0.000374007
       0.0543   0.000372137
       0.0544   0.000370288
       0.0545    0.00036846
       0.0546   0.000366653
       0.0547   0.000364866
       0.0548   0.000363099
       0.0549   0.000361352
        0.055   0.000359624
       0.0551   0.000357916
       0.0552   0.000356226
       0.0553   0.000354554
       0.0554   0.000352901
       0.0555   0.000351266
       0.0556   0.000349649
       0.0557   0.000348049
       0.0558   0.000346467
       0.0559   0.000344901
        0.056   0.000343352
       0.0561   0.000341819
       0.0562   0.000340303
       0.0563   0.000338803
       0.0564   0.000337318
       0.0565   0.000335849
       0.0566   0.000334395
       0.0567   0.000332956
       0.0568   0.000331532
       0.0569   0.000330123
        0.057   0.000328728
       0.0571   0.000327347
       0.0572    0.00032598
       0.0573   0.000324628
       0.0574   0.000323288
       0.0575   0.000321963
       0.0576    0.00032065
       0.0577   0.000319351
       0.0578   0.000318064
       0.0579    0.00031679
        0.058   0.000315529
       0.0581    0.00031428
       0.0582   0.000313043
       0.0583   0.000311818
       0.0584   0.000310605
       0.0585   0.000309404
       0.0586   0.000308215
       0.0587   0.000307036
       0.0588   0.000305869
       0.0589   0.000304713
        0.059   0.000303568
       0.0591   0.000302434
       0.0592    0.00030131
       0.0593   0.000300197
       0.0594   0.000299095
       0.0595   0.000298002
       0.0596    0.00029692
       0.0597   0.000295848
       0.0598   0.000294785
       0.0599   0.000293732
         0.06   0.000292689
       0.0601   0.000291655
       0.0602   0.000290631
       0.0603   0.000289616
       0.0604   0.000288609
       0.0605   0.000287612
       0.0606   0.000286624
       0.0607   0.000285645
       0.0608   0.000284674
       0.0609   0.000283712
        0.061   0.000282758
       0.0611   0.000281812
       0.0612   0.000280875
       0.0613   0.000279946
       0.0614   0.000279025
       0.0615   0.000278112
       0.0616   0.000277207
       0.0617   0.000276309
       0.0618   0.000275419
       0.0619   0.000274537
        0.062   0.000273662
       0.0621   0.000272794
       0.0622   0.000271934
       0.0623   0.000271081
       0.0624   0.000270235
       0.0625   0.000269396
       0.0626   0.000268564
       0.0627   0.000267739
       0.0628   0.000266921
       0.0629   0.000266109
        0.063   0.000265304
       0.0631   0.000264506
       0.0632   0.000263714
       0.0633   0.000262928
       0.0634   0.000262149
       0.0635   0.000261376
       0.0636   0.000260609
       0.0637   0.000259849
       0.0638   0.000259094
       0.0639   0.000258345
        0.064   0.000257603
       0.0641   0.000256866
       0.0642   0.000256134
       0.0643   0.000255409
       0.0644   0.000254689
       0.0645   0.000253975
       0.0646   0.000253266
       0.0647   0.000252563
       0.0648   0.000251865
       0.0649   0.000251172
        0.065   0.000250485
       0.0651   0.000249803
       0.0652   0.000249126
       0.0653   0.000248454
       0.0654   0.000247787
       0.0655   0.000247125
       0.0656   0.000246468
       0.0657   0.000245816
       0.0658   0.000245169
       0.0659   0.000244527
        0.066   0.000243889
       0.0661   0.000243256
       0.0662   0.000242628
       0.0663   0.000242004
       0.0664   0.000241385
       0.0665    0.00024077
       0.0666    0.00024016
       0.0667   0.000239554
       0.0668   0.000238953
       0.0669   0.000238355
        0.067   0.000237762
       0.0671   0.000237174
       0.0672   0.000236589
       0.0673   0.000236009
       0.0674   0.000235432
       0.0675    0.00023486
       0.0676   0.000234291
       0.0677   0.000233727
       0.0678   0.000233167
       0.0679    0.00023261
        0.068   0.000232057
       0.0681   0.000231508
       0.0682   0.000230963
       0.0683   0.000230422
       0.0684   0.000229884
       0.0685    0.00022935
       0.0686   0.000228819
       0.0687   0.000228292
       0.0688   0.000227769
       0.0689   0.000227249
        0.069   0.000226733
       0.0691    0.00022622
       0.0692    0.00022571
       0.0693   0.000225204
       0.0694   0.000224701
       0.0695   0.000224202
       0.0696   0.000223706
       0.0697   0.000223213
       0.0698   0.000222723
       0.0699   0.000222236
         0.07   0.000221753
       0.0701   0.000221273
       0.0702   0.000220795
       0.0703   0.000220321
       0.0704    0.00021985
       0.0705   0.000219382
       0.0706   0.000218917
       0.0707   0.000218455
       0.0708   0.000217996
       0.0709   0.000217539
        0.071   0.000217086
       0.0711   0.000216635
       0.0712   0.000216188
       0.0713   0.000215743
       0.0714     0.0002153
       0.0715   0.000214861
       0.0716   0.000214424
       0.0717    0.00021399
       0.0718   0.000213559
       0.0719    0.00021313
        0.072   0.000212704
       0.0721    0.00021228
       0.0722   0.000211859
       0.0723   0.000211441
       0.0724   0.000211025
       0.0725   0.000210612
       0.0726   0.000210201
       0.0727   0.000209792
       0.0728   0.000209386
       0.0729   0.000208983
        0.073   0.000208582
       0.0731   0.000208183
       0.0732   0.000207786
       0.0733   0.000207392
       0.0734      0.000207
       0.0735   0.000206611
       0.0736   0.000206224
       0.0737   0.000205839
       0.0738   0.000205456
       0.0739   0.000205075
        0.074   0.000204697
       0.0741   0.000204321
       0.0742   0.000203947
       0.0743   0.000203575
       0.0744   0.000203205
       0.0745   0.000202838
       0.0746   0.000202472
       0.0747   0.000202109
       0.0748   0.000201747
       0.0749   0.000201388
        0.075   0.000201031
       0.0751   0.000200675
       0.0752   0.000200322
       0.0753    0.00019997
       0.0754   0.000199621
       0.0755   0.000199273
       0.0756   0.000198928
       0.0757   0.000198584
       0.0758   0.000198242
       0.0759   0.000197902
        0.076   0.000197564
       0.0761   0.000197228
       0.0762   0.000196894
       0.0763   0.000196561
       0.0764    0.00019623
       0.0765   0.000195901
       0.0766   0.000195574
       0.0767   0.000195249
       0.0768   0.000194925
       0.0769   0.000194603
        0.077   0.000194282
       0.0771   0.000193964
       0.0772   0.000193647
       0.0773   0.000193332
       0.0774   0.000193018
       0.0775   0.000192706
       0.0776   0.000192396
       0.0777   0.000192087
       0.0778    0.00019178
       0.0779   0.000191475
        0.078   0.000191171
       0.0781   0.000190868
       0.0782   0.000190568
       0.0783   0.000190268
       0.0784   0.000189971
       0.0785   0.000189675
       0.0786    0.00018938
       0.0787   0.000189087
       0.0788   0.000188795
       0.0789   0.000188505
        0.079   0.000188216
       0.0791   0.000187929
       0.0792   0.000187643
       0.0793   0.000187359
       0.0794   0.000187076
       0.0795   0.000186794
       0.0796   0.000186514
       0.0797   0.000186235
       0.0798   0.000185958
       0.0799   0.000185682
         0.08   0.000185407
       0.0801   0.000185134
       0.0802   0.000184862
       0.0803   0.000184591
       0.0804   0.000184322
       0.0805   0.000184054
       0.0806   0.000183787
       0.0807   0.000183522
       0.0808   0.000183258
       0.0809   0.000182995
        0.081   0.000182734
       0.0811   0.000182473
       0.0812   0.000182214
       0.0813   0.000181956
       0.0814     0.0001817
       0.0815   0.000181444
       0.0816    0.00018119
       0.0817   0.000180937
       0.0818   0.000180685
       0.0819   0.000180435
        0.082   0.000180185
       0.0821   0.000179937
       0.0822    0.00017969
       0.0823   0.000179444
       0.0824   0.000179199
       0.0825   0.000178956
       0.0826   0.000178713
       0.0827   0.000178472
       0.0828   0.000178231
       0.0829   0.000177992
        0.083   0.000177754
       0.0831   0.000177517
       0.0832   0.000177281
       0.0833   0.000177046
       0.0834   0.000176813
       0.0835    0.00017658
       0.0836   0.000176348
       0.0837   0.000176117
       0.0838   0.000175888
       0.0839   0.000175659
        0.084   0.000175432
       0.0841   0.000175205
       0.0842    0.00017498
       0.0843   0.000174755
       0.0844   0.000174532
       0.0845   0.000174309
       0.0846   0.000174088
       0.0847   0.000173867
       0.0848   0.000173648
       0.0849   0.000173429
        0.085   0.000173211
       0.0851   0.000172995
       0.0852   0.000172779
       0.0853   0.000172564
       0.0854    0.00017235
       0.0855   0.000172137
       0.0856   0.000171925
       0.0857   0.000171714
       0.0858   0.000171504
       0.0859   0.000171294
        0.086   0.000171086
       0.0861   0.000170878
       0.0862   0.000170672
       0.0863   0.000170466
       0.0864   0.000170261
