# Probe 0 (0.05 0.05 0.005)
#       Probe             0
#        Time
       0.0001          0.04
       0.0002          0.04
       0.0003          0.04
       0.0004          0.04
       0.0005          0.04
       0.0006          0.04
       0.0007          0.04
       0.0008          0.04
       0.0009     0.0399999
        0.001     0.0399999
       0.0011     0.0399998
       0.0012     0.0399998
       0.0013     0.0399997
       0.0014     0.0399996
       0.0015     0.0399995
       0.0016     0.0399993
       0.0017     0.0399991
       0.0018     0.0399989
       0.0019     0.0399986
        0.002     0.0399983
       0.0021      0.039998
       0.0022     0.0399975
       0.0023     0.0399971
       0.0024     0.0399965
       0.0025     0.0399959
       0.0026     0.0399952
       0.0027     0.0399944
       0.0028     0.0399935
       0.0029     0.0399925
        0.003     0.0399915
       0.0031     0.0399903
       0.0032     0.0399889
       0.0033     0.0399875
       0.0034     0.0399859
       0.0035     0.0399841
       0.0036     0.0399822
       0.0037     0.0399801
       0.0038     0.0399779
       0.0039     0.0399755
        0.004     0.0399728
       0.0041       0.03997
       0.0042     0.0399669
       0.0043     0.0399637
       0.0044     0.0399601
       0.0045     0.0399564
       0.0046     0.0399524
       0.0047     0.0399481
       0.0048     0.0399435
       0.0049     0.0399386
        0.005     0.0399334
       0.0051     0.0399279
       0.0052     0.0399221
       0.0053     0.0399159
       0.0054     0.0399093
       0.0055     0.0399024
       0.0056     0.0398951
       0.0057     0.0398874
       0.0058     0.0398792
       0.0059     0.0398707
        0.006     0.0398617
       0.0061     0.0398522
       0.0062     0.0398422
       0.0063     0.0398318
       0.0064     0.0398209
       0.0065     0.0398094
       0.0066     0.0397974
       0.0067     0.0397848
       0.0068     0.0397717
       0.0069     0.0397579
        0.007     0.0397436
       0.0071     0.0397287
       0.0072     0.0397131
       0.0073     0.0396968
       0.0074     0.0396799
       0.0075     0.0396623
       0.0076     0.0396439
       0.0077     0.0396249
       0.0078      0.039605
       0.0079     0.0395845
        0.008     0.0395631
       0.0081     0.0395409
       0.0082     0.0395179
       0.0083     0.0394941
       0.0084     0.0394694
       0.0085     0.0394438
       0.0086     0.0394173
       0.0087     0.0393899
       0.0088     0.0393616
       0.0089     0.0393323
        0.009      0.039302
       0.0091     0.0392707
       0.0092     0.0392384
       0.0093     0.0392051
       0.0094     0.0391707
       0.0095     0.0391352
       0.0096     0.0390986
       0.0097     0.0390609
       0.0098     0.0390221
       0.0099     0.0389821
         0.01     0.0389409
       0.0101     0.0388985
       0.0102     0.0388549
       0.0103       0.03881
       0.0104     0.0387639
       0.0105     0.0387165
       0.0106     0.0386678
       0.0107     0.0386178
       0.0108     0.0385664
       0.0109     0.0385136
        0.011     0.0384595
       0.0111      0.038404
       0.0112      0.038347
       0.0113     0.0382886
       0.0114     0.0382287
       0.0115     0.0381674
       0.0116     0.0381045
       0.0117     0.0380401
       0.0118     0.0379742
       0.0119     0.0379067
        0.012     0.0378377
       0.0121      0.037767
       0.0122     0.0376948
       0.0123     0.0376209
       0.0124     0.0375453
       0.0125     0.0374681
       0.0126     0.0373892
       0.0127     0.0373086
       0.0128     0.0372263
       0.0129     0.0371423
        0.013     0.0370565
       0.0131      0.036969
       0.0132     0.0368797
       0.0133     0.0367886
       0.0134     0.0366957
       0.0135     0.0366009
       0.0136     0.0365044
       0.0137      0.036406
       0.0138     0.0363057
       0.0139     0.0362036
        0.014     0.0360996
       0.0141     0.0359938
       0.0142      0.035886
       0.0143     0.0357763
       0.0144     0.0356647
       0.0145     0.0355512
       0.0146     0.0354358
       0.0147     0.0353184
       0.0148     0.0351991
       0.0149     0.0350778
        0.015     0.0349546
       0.0151     0.0348294
       0.0152     0.0347023
       0.0153     0.0345732
       0.0154     0.0344421
       0.0155     0.0343091
       0.0156     0.0341741
       0.0157     0.0340371
       0.0158     0.0338982
       0.0159     0.0337573
        0.016     0.0336144
       0.0161     0.0334696
       0.0162     0.0333228
       0.0163     0.0331741
       0.0164     0.0330235
       0.0165     0.0328709
       0.0166     0.0327164
       0.0167     0.0325599
       0.0168     0.0324016
       0.0169     0.0322413
        0.017     0.0320791
       0.0171     0.0319151
       0.0172     0.0317492
       0.0173     0.0315815
       0.0174     0.0314119
       0.0175     0.0312405
       0.0176     0.0310673
       0.0177     0.0308923
       0.0178     0.0307156
       0.0179     0.0305371
        0.018     0.0303568
       0.0181     0.0301749
       0.0182     0.0299912
       0.0183     0.0298059
       0.0184      0.029619
       0.0185     0.0294305
       0.0186     0.0292403
       0.0187     0.0290486
       0.0188     0.0288554
       0.0189     0.0286606
        0.019     0.0284644
       0.0191     0.0282667
       0.0192     0.0280676
       0.0193     0.0278672
       0.0194     0.0276653
       0.0195     0.0274622
       0.0196     0.0272577
       0.0197      0.027052
       0.0198     0.0268451
       0.0199     0.0266371
         0.02     0.0264278
       0.0201     0.0262175
       0.0202     0.0260061
       0.0203     0.0257937
       0.0204     0.0255803
       0.0205      0.025366
       0.0206     0.0251507
       0.0207     0.0249346
       0.0208     0.0247176
       0.0209     0.0244999
        0.021     0.0242815
       0.0211     0.0240623
       0.0212     0.0238426
       0.0213     0.0236222
       0.0214     0.0234012
       0.0215     0.0231798
       0.0216     0.0229579
       0.0217     0.0227356
       0.0218     0.0225129
       0.0219     0.0222899
        0.022     0.0220666
       0.0221      0.021843
       0.0222     0.0216193
       0.0223     0.0213955
       0.0224     0.0211716
       0.0225     0.0209476
       0.0226     0.0207237
       0.0227     0.0204998
       0.0228      0.020276
       0.0229     0.0200523
        0.023     0.0198289
       0.0231     0.0196057
       0.0232     0.0193829
       0.0233     0.0191603
       0.0234     0.0189382
       0.0235     0.0187165
       0.0236     0.0184952
       0.0237     0.0182746
       0.0238     0.0180544
       0.0239      0.017835
        0.024     0.0176161
       0.0241      0.017398
       0.0242     0.0171807
       0.0243     0.0169641
       0.0244     0.0167484
       0.0245     0.0165336
       0.0246     0.0163198
       0.0247     0.0161068
       0.0248     0.0158949
       0.0249     0.0156841
        0.025     0.0154743
       0.0251     0.0152657
       0.0252     0.0150583
       0.0253      0.014852
       0.0254      0.014647
       0.0255     0.0144433
       0.0256     0.0142408
       0.0257     0.0140398
       0.0258     0.0138401
       0.0259     0.0136418
        0.026     0.0134449
       0.0261     0.0132496
       0.0262     0.0130557
       0.0263     0.0128634
       0.0264     0.0126726
       0.0265     0.0124834
       0.0266     0.0122958
       0.0267     0.0121099
       0.0268     0.0119256
       0.0269     0.0117429
        0.027      0.011562
       0.0271     0.0113828
       0.0272     0.0112054
       0.0273     0.0110297
       0.0274     0.0108558
       0.0275     0.0106836
       0.0276     0.0105133
       0.0277     0.0103448
       0.0278     0.0101782
       0.0279     0.0100133
        0.028    0.00985038
       0.0281    0.00968929
       0.0282    0.00953007
       0.0283    0.00937274
       0.0284    0.00921731
       0.0285    0.00906376
       0.0286    0.00891213
       0.0287    0.00876239
       0.0288    0.00861457
       0.0289    0.00846866
        0.029    0.00832467
       0.0291    0.00818258
       0.0292    0.00804241
       0.0293    0.00790415
       0.0294    0.00776781
       0.0295    0.00763336
       0.0296    0.00750082
       0.0297    0.00737018
       0.0298    0.00724143
       0.0299    0.00711457
         0.03    0.00698958
       0.0301    0.00686647
       0.0302    0.00674521
       0.0303    0.00662582
       0.0304    0.00650826
       0.0305    0.00639254
       0.0306    0.00627864
       0.0307    0.00616655
       0.0308    0.00605626
       0.0309    0.00594775
        0.031    0.00584102
       0.0311    0.00573604
       0.0312    0.00563281
       0.0313     0.0055313
       0.0314    0.00543151
       0.0315    0.00533342
       0.0316    0.00523701
       0.0317    0.00514227
       0.0318    0.00504917
       0.0319    0.00495771
        0.032    0.00486785
       0.0321     0.0047796
       0.0322    0.00469292
       0.0323    0.00460781
       0.0324    0.00452423
       0.0325    0.00444218
       0.0326    0.00436163
       0.0327    0.00428257
       0.0328    0.00420497
       0.0329    0.00412882
        0.033     0.0040541
       0.0331    0.00398078
       0.0332    0.00390886
       0.0333    0.00383829
       0.0334    0.00376908
       0.0335     0.0037012
       0.0336    0.00363462
       0.0337    0.00356934
       0.0338    0.00350532
       0.0339    0.00344255
        0.034    0.00338102
       0.0341    0.00332069
       0.0342    0.00326155
       0.0343    0.00320358
       0.0344    0.00314677
       0.0345    0.00309109
       0.0346    0.00303652
       0.0347    0.00298304
       0.0348    0.00293064
       0.0349    0.00287929
        0.035    0.00282898
       0.0351    0.00277969
       0.0352     0.0027314
       0.0353     0.0026841
       0.0354    0.00263775
       0.0355    0.00259236
       0.0356    0.00254789
       0.0357    0.00250433
       0.0358    0.00246166
       0.0359    0.00241988
        0.036    0.00237895
       0.0361    0.00233886
       0.0362     0.0022996
       0.0363    0.00226115
       0.0364     0.0022235
       0.0365    0.00218662
       0.0366    0.00215051
       0.0367    0.00211514
       0.0368    0.00208051
       0.0369    0.00204659
        0.037    0.00201338
       0.0371    0.00198085
       0.0372      0.001949
       0.0373    0.00191781
       0.0374    0.00188727
       0.0375    0.00185735
       0.0376    0.00182806
       0.0377    0.00179938
       0.0378    0.00177128
       0.0379    0.00174377
        0.038    0.00171683
       0.0381    0.00169044
       0.0382     0.0016646
       0.0383    0.00163929
       0.0384     0.0016145
       0.0385    0.00159022
       0.0386    0.00156644
       0.0387    0.00154315
       0.0388    0.00152034
       0.0389    0.00149799
        0.039     0.0014761
       0.0391    0.00145466
       0.0392    0.00143365
       0.0393    0.00141307
       0.0394    0.00139291
       0.0395    0.00137316
       0.0396     0.0013538
       0.0397    0.00133484
       0.0398    0.00131626
       0.0399    0.00129805
         0.04    0.00128021
       0.0401    0.00126273
       0.0402    0.00124559
       0.0403     0.0012288
       0.0404    0.00121234
       0.0405    0.00119621
       0.0406     0.0011804
       0.0407     0.0011649
       0.0408     0.0011497
       0.0409     0.0011348
        0.041     0.0011202
       0.0411    0.00110588
       0.0412    0.00109184
       0.0413    0.00107807
       0.0414    0.00106456
       0.0415    0.00105132
       0.0416    0.00103834
       0.0417     0.0010256
       0.0418    0.00101311
       0.0419    0.00100085
        0.042    0.00098883
       0.0421   0.000977036
       0.0422   0.000965465
       0.0423   0.000954112
       0.0424   0.000942972
       0.0425    0.00093204
       0.0426   0.000921312
       0.0427   0.000910784
       0.0428    0.00090045
       0.0429   0.000890308
        0.043   0.000880352
       0.0431   0.000870578
       0.0432   0.000860983
       0.0433   0.000851562
       0.0434   0.000842312
       0.0435    0.00083323
       0.0436   0.000824311
       0.0437   0.000815551
       0.0438   0.000806948
       0.0439   0.000798499
        0.044   0.000790199
       0.0441   0.000782046
       0.0442   0.000774036
       0.0443   0.000766166
       0.0444   0.000758434
       0.0445   0.000750836
       0.0446    0.00074337
       0.0447   0.000736033
       0.0448   0.000728822
       0.0449   0.000721734
        0.045   0.000714768
       0.0451   0.000707919
       0.0452   0.000701186
       0.0453   0.000694567
       0.0454   0.000688059
       0.0455   0.000681659
       0.0456   0.000675366
       0.0457   0.000669177
       0.0458    0.00066309
       0.0459   0.000657104
        0.046   0.000651215
       0.0461   0.000645422
       0.0462   0.000639724
       0.0463   0.000634117
       0.0464     0.0006286
       0.0465   0.000623172
       0.0466   0.000617831
       0.0467   0.000612574
       0.0468   0.000607401
       0.0469   0.000602309
        0.047   0.000597297
       0.0471   0.000592363
       0.0472   0.000587506
       0.0473   0.000582724
       0.0474   0.000578016
       0.0475    0.00057338
       0.0476   0.000568815
       0.0477    0.00056432
       0.0478   0.000559893
       0.0479   0.000555532
        0.048   0.000551237
       0.0481   0.000547006
       0.0482   0.000542839
       0.0483   0.000538733
       0.0484   0.000534687
       0.0485   0.000530701
       0.0486   0.000526774
       0.0487   0.000522904
       0.0488   0.000519089
       0.0489    0.00051533
        0.049   0.000511625
       0.0491   0.000507974
       0.0492   0.000504374
       0.0493   0.000500825
       0.0494   0.000497326
       0.0495   0.000493877
       0.0496   0.000490476
       0.0497   0.000487122
       0.0498   0.000483815
       0.0499   0.000480554
         0.05   0.000477338
       0.0501   0.000474166
       0.0502   0.000471037
       0.0503    0.00046795
       0.0504   0.000464905
       0.0505   0.000461902
       0.0506   0.000458938
       0.0507   0.000456014
       0.0508   0.000453129
       0.0509   0.000450282
        0.051   0.000447473
       0.0511   0.000444701
       0.0512   0.000441964
       0.0513   0.000439264
       0.0514   0.000436598
       0.0515   0.000433967
       0.0516   0.000431369
       0.0517   0.000428805
       0.0518   0.000426273
       0.0519   0.000423774
        0.052   0.000421306
       0.0521   0.000418869
       0.0522   0.000416462
       0.0523   0.000414086
       0.0524   0.000411739
       0.0525    0.00040942
       0.0526   0.000407131
       0.0527   0.000404869
       0.0528   0.000402635
       0.0529   0.000400428
        0.053   0.000398248
       0.0531   0.000396094
       0.0532   0.000393966
       0.0533   0.000391863
       0.0534   0.000389785
       0.0535   0.000387732
       0.0536   0.000385703
       0.0537   0.000383698
       0.0538   0.000381716
       0.0539   0.000379757
        0.054   0.000377821
       0.0541   0.000375908
       0.0542   0.000374016
       0.0543   0.000372146
       0.0544   0.000370297
       0.0545   0.000368469
       0.0546   0.000366662
       0.0547   0.000364875
       0.0548   0.000363108
       0.0549   0.000361361
        0.055   0.000359633
       0.0551   0.000357925
       0.0552   0.000356235
       0.0553   0.000354564
       0.0554   0.000352911
       0.0555   0.000351276
       0.0556   0.000349658
       0.0557   0.000348058
       0.0558   0.000346476
       0.0559    0.00034491
        0.056   0.000343361
       0.0561   0.000341828
       0.0562   0.000340312
       0.0563   0.000338812
       0.0564   0.000337327
       0.0565   0.000335858
       0.0566   0.000334404
       0.0567   0.000332965
       0.0568   0.000331541
       0.0569   0.000330132
        0.057   0.000328737
       0.0571   0.000327356
       0.0572    0.00032599
       0.0573   0.000324637
       0.0574   0.000323297
       0.0575   0.000321972
       0.0576   0.000320659
       0.0577    0.00031936
       0.0578   0.000318073
       0.0579   0.000316799
        0.058   0.000315538
       0.0581   0.000314289
       0.0582   0.000313052
       0.0583   0.000311827
       0.0584   0.000310615
       0.0585   0.000309413
       0.0586   0.000308224
       0.0587   0.000307045
       0.0588   0.000305878
       0.0589   0.000304722
        0.059   0.000303577
       0.0591   0.000302443
       0.0592    0.00030132
       0.0593   0.000300207
       0.0594   0.000299104
       0.0595   0.000298011
       0.0596   0.000296929
       0.0597   0.000295857
       0.0598   0.000294794
       0.0599   0.000293741
         0.06   0.000292698
       0.0601   0.000291664
       0.0602    0.00029064
       0.0603   0.000289625
       0.0604   0.000288619
       0.0605   0.000287622
       0.0606   0.000286633
       0.0607   0.000285654
       0.0608   0.000284683
       0.0609   0.000283721
        0.061   0.000282767
       0.0611   0.000281822
       0.0612   0.000280884
       0.0613   0.000279955
       0.0614   0.000279034
       0.0615   0.000278121
       0.0616   0.000277216
       0.0617   0.000276318
       0.0618   0.000275428
       0.0619   0.000274546
        0.062   0.000273671
       0.0621   0.000272804
       0.0622   0.000271943
       0.0623    0.00027109
       0.0624   0.000270244
       0.0625   0.000269405
       0.0626   0.000268573
       0.0627   0.000267748
       0.0628    0.00026693
       0.0629   0.000266119
        0.063   0.000265314
       0.0631   0.000264515
       0.0632   0.000263723
       0.0633   0.000262938
       0.0634   0.000262158
       0.0635   0.000261385
       0.0636   0.000260619
       0.0637   0.000259858
       0.0638   0.000259103
       0.0639   0.000258354
        0.064   0.000257612
       0.0641   0.000256875
       0.0642   0.000256143
       0.0643   0.000255418
       0.0644   0.000254698
       0.0645   0.000253984
       0.0646   0.000253275
       0.0647   0.000252572
       0.0648   0.000251874
       0.0649   0.000251181
        0.065   0.000250494
       0.0651   0.000249812
       0.0652   0.000249135
       0.0653   0.000248463
       0.0654   0.000247796
       0.0655   0.000247134
       0.0656   0.000246478
       0.0657   0.000245826
       0.0658   0.000245178
       0.0659   0.000244536
        0.066   0.000243898
       0.0661   0.000243265
       0.0662   0.000242637
       0.0663   0.000242013
       0.0664   0.000241394
       0.0665   0.000240779
       0.0666   0.000240169
       0.0667   0.000239563
       0.0668   0.000238962
       0.0669   0.000238365
        0.067   0.000237772
       0.0671   0.000237183
       0.0672   0.000236598
       0.0673   0.000236018
       0.0674   0.000235441
       0.0675   0.000234869
       0.0676   0.000234301
       0.0677   0.000233736
       0.0678   0.000233176
       0.0679   0.000232619
        0.068   0.000232066
       0.0681   0.000231517
       0.0682   0.000230972
       0.0683   0.000230431
       0.0684   0.000229893
       0.0685   0.000229359
       0.0686   0.000228828
       0.0687   0.000228302
       0.0688   0.000227778
       0.0689   0.000227258
        0.069   0.000226742
       0.0691   0.000226229
       0.0692   0.000225719
       0.0693   0.000225213
       0.0694    0.00022471
       0.0695   0.000224211
       0.0696   0.000223715
       0.0697   0.000223222
       0.0698   0.000222732
       0.0699   0.000222245
         0.07   0.000221762
       0.0701   0.000221282
       0.0702   0.000220805
       0.0703    0.00022033
       0.0704   0.000219859
       0.0705   0.000219391
       0.0706   0.000218926
       0.0707   0.000218464
       0.0708   0.000218005
       0.0709   0.000217549
        0.071   0.000217095
       0.0711   0.000216645
       0.0712   0.000216197
       0.0713   0.000215752
       0.0714    0.00021531
       0.0715    0.00021487
       0.0716   0.000214433
       0.0717   0.000213999
       0.0718   0.000213568
       0.0719   0.000213139
        0.072   0.000212713
       0.0721   0.000212289
       0.0722   0.000211869
       0.0723    0.00021145
       0.0724   0.000211034
       0.0725   0.000210621
       0.0726    0.00021021
       0.0727   0.000209802
       0.0728   0.000209396
       0.0729   0.000208992
        0.073   0.000208591
       0.0731   0.000208192
       0.0732   0.000207796
       0.0733   0.000207401
       0.0734    0.00020701
       0.0735    0.00020662
       0.0736   0.000206233
       0.0737   0.000205848
       0.0738   0.000205465
       0.0739   0.000205085
        0.074   0.000204706
       0.0741    0.00020433
       0.0742   0.000203956
       0.0743   0.000203584
       0.0744   0.000203215
       0.0745   0.000202847
       0.0746   0.000202481
       0.0747   0.000202118
       0.0748   0.000201757
       0.0749   0.000201397
        0.075    0.00020104
       0.0751   0.000200684
       0.0752   0.000200331
       0.0753    0.00019998
       0.0754    0.00019963
       0.0755   0.000199283
       0.0756   0.000198937
       0.0757   0.000198593
       0.0758   0.000198251
       0.0759   0.000197912
        0.076   0.000197573
       0.0761   0.000197237
       0.0762   0.000196903
       0.0763    0.00019657
       0.0764   0.000196239
       0.0765    0.00019591
       0.0766   0.000195583
       0.0767   0.000195258
       0.0768   0.000194934
       0.0769   0.000194612
        0.077   0.000194292
       0.0771   0.000193973
       0.0772   0.000193656
       0.0773   0.000193341
       0.0774   0.000193027
       0.0775   0.000192715
       0.0776   0.000192405
       0.0777   0.000192096
       0.0778   0.000191789
       0.0779   0.000191484
        0.078    0.00019118
       0.0781   0.000190877
       0.0782   0.000190577
       0.0783   0.000190277
       0.0784    0.00018998
       0.0785   0.000189684
       0.0786   0.000189389
       0.0787   0.000189096
       0.0788   0.000188804
       0.0789   0.000188514
        0.079   0.000188225
       0.0791   0.000187938
       0.0792   0.000187652
       0.0793   0.000187368
       0.0794   0.000187085
       0.0795   0.000186803
       0.0796   0.000186523
       0.0797   0.000186244
       0.0798   0.000185967
       0.0799   0.000185691
         0.08   0.000185416
       0.0801   0.000185143
       0.0802   0.000184871
       0.0803   0.000184601
       0.0804   0.000184331
       0.0805   0.000184063
       0.0806   0.000183797
       0.0807   0.000183531
       0.0808   0.000183267
       0.0809   0.000183004
        0.081   0.000182743
       0.0811   0.000182482
       0.0812   0.000182223
       0.0813   0.000181965
       0.0814   0.000181709
       0.0815   0.000181453
       0.0816   0.000181199
       0.0817   0.000180946
       0.0818   0.000180695
       0.0819   0.000180444
        0.082   0.000180195
       0.0821   0.000179946
       0.0822   0.000179699
       0.0823   0.000179453
       0.0824   0.000179208
       0.0825   0.000178965
       0.0826   0.000178722
       0.0827   0.000178481
       0.0828   0.000178241
       0.0829   0.000178001
        0.083   0.000177763
       0.0831   0.000177526
       0.0832    0.00017729
       0.0833   0.000177055
       0.0834   0.000176822
       0.0835   0.000176589
       0.0836   0.000176357
       0.0837   0.000176127
       0.0838   0.000175897
       0.0839   0.000175668
        0.084   0.000175441
       0.0841   0.000175214
       0.0842   0.000174989
       0.0843   0.000174764
       0.0844   0.000174541
       0.0845   0.000174318
       0.0846   0.000174097
       0.0847   0.000173876
       0.0848   0.000173657
       0.0849   0.000173438
        0.085    0.00017322
       0.0851   0.000173004
       0.0852   0.000172788
       0.0853   0.000172573
       0.0854   0.000172359
       0.0855   0.000172146
       0.0856   0.000171934
       0.0857   0.000171723
       0.0858   0.000171513
       0.0859   0.000171303
        0.086   0.000171095
       0.0861   0.000170887
       0.0862   0.000170681
       0.0863   0.000170475
       0.0864    0.00017027
