# Probe 0 (0.05 0.05 0.005)
#       Probe             0
#        Time
       0.0001          0.04
       0.0002          0.04
       0.0003          0.04
       0.0004          0.04
       0.0005          0.04
       0.0006          0.04
       0.0007          0.04
       0.0008     0.0399999
       0.0009     0.0399999
        0.001     0.0399999
       0.0011     0.0399998
       0.0012     0.0399998
       0.0013     0.0399997
       0.0014     0.0399996
       0.0015     0.0399995
       0.0016     0.0399993
       0.0017     0.0399991
       0.0018     0.0399989
       0.0019     0.0399986
        0.002     0.0399983
       0.0021      0.039998
       0.0022     0.0399975
       0.0023     0.0399971
       0.0024     0.0399965
       0.0025     0.0399959
       0.0026     0.0399952
       0.0027     0.0399944
       0.0028     0.0399935
       0.0029     0.0399925
        0.003     0.0399914
       0.0031     0.0399902
       0.0032     0.0399889
       0.0033     0.0399874
       0.0034     0.0399858
       0.0035     0.0399841
       0.0036     0.0399822
       0.0037     0.0399801
       0.0038     0.0399779
       0.0039     0.0399754
        0.004     0.0399728
       0.0041       0.03997
       0.0042     0.0399669
       0.0043     0.0399636
       0.0044     0.0399601
       0.0045     0.0399564
       0.0046     0.0399523
       0.0047      0.039948
       0.0048     0.0399435
       0.0049     0.0399386
        0.005     0.0399334
       0.0051     0.0399279
       0.0052      0.039922
       0.0053     0.0399159
       0.0054     0.0399093
       0.0055     0.0399024
       0.0056     0.0398951
       0.0057     0.0398873
       0.0058     0.0398792
       0.0059     0.0398707
        0.006     0.0398616
       0.0061     0.0398522
       0.0062     0.0398422
       0.0063     0.0398318
       0.0064     0.0398208
       0.0065     0.0398094
       0.0066     0.0397974
       0.0067     0.0397848
       0.0068     0.0397717
       0.0069     0.0397579
        0.007     0.0397436
       0.0071     0.0397286
       0.0072      0.039713
       0.0073     0.0396968
       0.0074     0.0396799
       0.0075     0.0396622
       0.0076     0.0396439
       0.0077     0.0396248
       0.0078      0.039605
       0.0079     0.0395844
        0.008     0.0395631
       0.0081     0.0395409
       0.0082     0.0395179
       0.0083     0.0394941
       0.0084     0.0394694
       0.0085     0.0394438
       0.0086     0.0394173
       0.0087     0.0393899
       0.0088     0.0393616
       0.0089     0.0393323
        0.009      0.039302
       0.0091     0.0392707
       0.0092     0.0392384
       0.0093     0.0392051
       0.0094     0.0391707
       0.0095     0.0391352
       0.0096     0.0390986
       0.0097     0.0390609
       0.0098     0.0390221
       0.0099     0.0389821
         0.01     0.0389409
       0.0101     0.0388985
       0.0102     0.0388549
       0.0103       0.03881
       0.0104     0.0387639
       0.0105     0.0387165
       0.0106     0.0386678
       0.0107     0.0386178
       0.0108     0.0385664
       0.0109     0.0385136
        0.011     0.0384595
       0.0111      0.038404
       0.0112      0.038347
       0.0113     0.0382886
       0.0114     0.0382287
       0.0115     0.0381674
       0.0116     0.0381045
       0.0117     0.0380401
       0.0118     0.0379742
       0.0119     0.0379067
        0.012     0.0378377
       0.0121      0.037767
       0.0122     0.0376947
       0.0123     0.0376209
       0.0124     0.0375453
       0.0125     0.0374681
       0.0126     0.0373892
       0.0127     0.0373086
       0.0128     0.0372263
       0.0129     0.0371423
        0.013     0.0370565
       0.0131      0.036969
       0.0132     0.0368796
       0.0133     0.0367885
       0.0134     0.0366956
       0.0135     0.0366009
       0.0136     0.0365044
       0.0137      0.036406
       0.0138     0.0363057
       0.0139     0.0362036
        0.014     0.0360996
       0.0141     0.0359937
       0.0142      0.035886
       0.0143     0.0357763
       0.0144     0.0356647
       0.0145     0.0355512
       0.0146     0.0354357
       0.0147     0.0353184
       0.0148      0.035199
       0.0149     0.0350778
        0.015     0.0349546
       0.0151     0.0348294
       0.0152     0.0347022
       0.0153     0.0345732
       0.0154     0.0344421
       0.0155     0.0343091
       0.0156     0.0341741
       0.0157     0.0340371
       0.0158     0.0338982
       0.0159     0.0337573
        0.016     0.0336144
       0.0161     0.0334696
       0.0162     0.0333228
       0.0163     0.0331741
       0.0164     0.0330235
       0.0165     0.0328709
       0.0166     0.0327163
       0.0167     0.0325599
       0.0168     0.0324015
       0.0169     0.0322413
        0.017     0.0320791
       0.0171     0.0319151
       0.0172     0.0317492
       0.0173     0.0315815
       0.0174     0.0314119
       0.0175     0.0312405
       0.0176     0.0310673
       0.0177     0.0308923
       0.0178     0.0307155
       0.0179      0.030537
        0.018     0.0303568
       0.0181     0.0301749
       0.0182     0.0299912
       0.0183     0.0298059
       0.0184      0.029619
       0.0185     0.0294304
       0.0186     0.0292403
       0.0187     0.0290486
       0.0188     0.0288554
       0.0189     0.0286606
        0.019     0.0284644
       0.0191     0.0282667
       0.0192     0.0280676
       0.0193     0.0278671
       0.0194     0.0276653
       0.0195     0.0274622
       0.0196     0.0272577
       0.0197      0.027052
       0.0198     0.0268451
       0.0199      0.026637
         0.02     0.0264278
       0.0201     0.0262175
       0.0202     0.0260061
       0.0203     0.0257937
       0.0204     0.0255803
       0.0205     0.0253659
       0.0206     0.0251507
       0.0207     0.0249346
       0.0208     0.0247176
       0.0209     0.0244999
        0.021     0.0242815
       0.0211     0.0240623
       0.0212     0.0238426
       0.0213     0.0236222
       0.0214     0.0234012
       0.0215     0.0231798
       0.0216     0.0229579
       0.0217     0.0227356
       0.0218     0.0225129
       0.0219     0.0222898
        0.022     0.0220665
       0.0221      0.021843
       0.0222     0.0216193
       0.0223     0.0213955
       0.0224     0.0211715
       0.0225     0.0209476
       0.0226     0.0207236
       0.0227     0.0204997
       0.0228      0.020276
       0.0229     0.0200523
        0.023     0.0198289
       0.0231     0.0196057
       0.0232     0.0193828
       0.0233     0.0191603
       0.0234     0.0189382
       0.0235     0.0187164
       0.0236     0.0184952
       0.0237     0.0182745
       0.0238     0.0180544
       0.0239     0.0178349
        0.024     0.0176161
       0.0241      0.017398
       0.0242     0.0171807
       0.0243     0.0169641
       0.0244     0.0167484
       0.0245     0.0165336
       0.0246     0.0163197
       0.0247     0.0161068
       0.0248     0.0158949
       0.0249     0.0156841
        0.025     0.0154743
       0.0251     0.0152657
       0.0252     0.0150582
       0.0253      0.014852
       0.0254      0.014647
       0.0255     0.0144432
       0.0256     0.0142408
       0.0257     0.0140398
       0.0258     0.0138401
       0.0259     0.0136418
        0.026     0.0134449
       0.0261     0.0132496
       0.0262     0.0130557
       0.0263     0.0128634
       0.0264     0.0126726
       0.0265     0.0124834
       0.0266     0.0122958
       0.0267     0.0121098
       0.0268     0.0119255
       0.0269     0.0117429
        0.027      0.011562
       0.0271     0.0113828
       0.0272     0.0112054
       0.0273     0.0110297
       0.0274     0.0108557
       0.0275     0.0106836
       0.0276     0.0105133
       0.0277     0.0103448
       0.0278     0.0101781
       0.0279     0.0100133
        0.028    0.00985036
       0.0281    0.00968927
       0.0282    0.00953006
       0.0283    0.00937273
       0.0284    0.00921729
       0.0285    0.00906375
       0.0286    0.00891211
       0.0287    0.00876238
       0.0288    0.00861455
       0.0289    0.00846864
        0.029    0.00832465
       0.0291    0.00818256
       0.0292    0.00804239
       0.0293    0.00790414
       0.0294    0.00776779
       0.0295    0.00763335
       0.0296    0.00750081
       0.0297    0.00737016
       0.0298    0.00724141
       0.0299    0.00711455
         0.03    0.00698956
       0.0301    0.00686645
       0.0302     0.0067452
       0.0303     0.0066258
       0.0304    0.00650824
       0.0305    0.00639252
       0.0306    0.00627862
       0.0307    0.00616653
       0.0308    0.00605624
       0.0309    0.00594773
        0.031      0.005841
       0.0311    0.00573602
       0.0312    0.00563279
       0.0313    0.00553129
       0.0314     0.0054315
       0.0315     0.0053334
       0.0316    0.00523699
       0.0317    0.00514225
       0.0318    0.00504915
       0.0319    0.00495769
        0.032    0.00486784
       0.0321    0.00477958
       0.0322    0.00469291
       0.0323    0.00460779
       0.0324    0.00452422
       0.0325    0.00444216
       0.0326    0.00436162
       0.0327    0.00428255
       0.0328    0.00420496
       0.0329    0.00412881
        0.033    0.00405408
       0.0331    0.00398077
       0.0332    0.00390884
       0.0333    0.00383828
       0.0334    0.00376906
       0.0335    0.00370118
       0.0336    0.00363461
       0.0337    0.00356932
       0.0338     0.0035053
       0.0339    0.00344254
        0.034      0.003381
       0.0341    0.00332067
       0.0342    0.00326153
       0.0343    0.00320357
       0.0344    0.00314675
       0.0345    0.00309107
       0.0346     0.0030365
       0.0347    0.00298302
       0.0348    0.00293062
       0.0349    0.00287927
        0.035    0.00282897
       0.0351    0.00277968
       0.0352    0.00273139
       0.0353    0.00268408
       0.0354    0.00263774
       0.0355    0.00259234
       0.0356    0.00254787
       0.0357    0.00250431
       0.0358    0.00246165
       0.0359    0.00241986
        0.036    0.00237893
       0.0361    0.00233884
       0.0362    0.00229958
       0.0363    0.00226114
       0.0364    0.00222348
       0.0365     0.0021866
       0.0366    0.00215049
       0.0367    0.00211513
       0.0368    0.00208049
       0.0369    0.00204658
        0.037    0.00201336
       0.0371    0.00198084
       0.0372    0.00194899
       0.0373    0.00191779
       0.0374    0.00188725
       0.0375    0.00185734
       0.0376    0.00182804
       0.0377    0.00179936
       0.0378    0.00177127
       0.0379    0.00174375
        0.038    0.00171681
       0.0381    0.00169042
       0.0382    0.00166458
       0.0383    0.00163927
       0.0384    0.00161448
       0.0385    0.00159021
       0.0386    0.00156643
       0.0387    0.00154313
       0.0388    0.00152032
       0.0389    0.00149797
        0.039    0.00147608
       0.0391    0.00145464
       0.0392    0.00143363
       0.0393    0.00141305
       0.0394    0.00139289
       0.0395    0.00137314
       0.0396    0.00135379
       0.0397    0.00133482
       0.0398    0.00131624
       0.0399    0.00129804
         0.04     0.0012802
       0.0401    0.00126271
       0.0402    0.00124558
       0.0403    0.00122878
       0.0404    0.00121232
       0.0405    0.00119619
       0.0406    0.00118038
       0.0407    0.00116488
       0.0408    0.00114968
       0.0409    0.00113478
        0.041    0.00112018
       0.0411    0.00110586
       0.0412    0.00109182
       0.0413    0.00107805
       0.0414    0.00106455
       0.0415    0.00105131
       0.0416    0.00103832
       0.0417    0.00102558
       0.0418    0.00101309
       0.0419    0.00100083
        0.042   0.000988812
       0.0421   0.000977018
       0.0422   0.000965447
       0.0423   0.000954094
       0.0424   0.000942954
       0.0425   0.000932022
       0.0426   0.000921294
       0.0427   0.000910766
       0.0428   0.000900433
       0.0429    0.00089029
        0.043   0.000880334
       0.0431    0.00087056
       0.0432   0.000860965
       0.0433   0.000851545
       0.0434   0.000842295
       0.0435   0.000833212
       0.0436   0.000824293
       0.0437   0.000815534
       0.0438   0.000806931
       0.0439   0.000798481
        0.044   0.000790181
       0.0441   0.000782028
       0.0442   0.000774018
       0.0443   0.000766148
       0.0444   0.000758416
       0.0445   0.000750819
       0.0446   0.000743353
       0.0447   0.000736016
       0.0448   0.000728804
       0.0449   0.000721717
        0.045    0.00071475
       0.0451   0.000707901
       0.0452   0.000701169
       0.0453   0.000694549
       0.0454   0.000688041
       0.0455   0.000681641
       0.0456   0.000675348
       0.0457   0.000669159
       0.0458   0.000663073
       0.0459   0.000657086
        0.046   0.000651197
       0.0461   0.000645405
       0.0462   0.000639706
       0.0463   0.000634099
       0.0464   0.000628583
       0.0465   0.000623155
       0.0466   0.000617813
       0.0467   0.000612557
       0.0468   0.000607383
       0.0469   0.000602291
        0.047   0.000597279
       0.0471   0.000592345
       0.0472   0.000587488
       0.0473   0.000582707
       0.0474   0.000577998
       0.0475   0.000573363
       0.0476   0.000568798
       0.0477   0.000564302
       0.0478   0.000559875
       0.0479   0.000555514
        0.048   0.000551219
       0.0481   0.000546989
       0.0482   0.000542821
       0.0483   0.000538715
       0.0484    0.00053467
       0.0485   0.000530684
       0.0486   0.000526756
       0.0487   0.000522886
       0.0488   0.000519072
       0.0489   0.000515313
        0.049   0.000511608
       0.0491   0.000507956
       0.0492   0.000504356
       0.0493   0.000500807
       0.0494   0.000497309
       0.0495   0.000493859
       0.0496   0.000490458
       0.0497   0.000487105
       0.0498   0.000483798
       0.0499   0.000480536
         0.05    0.00047732
       0.0501   0.000474148
       0.0502   0.000471019
       0.0503   0.000467932
       0.0504   0.000464888
       0.0505   0.000461884
       0.0506    0.00045892
       0.0507   0.000455997
       0.0508   0.000453112
       0.0509   0.000450265
        0.051   0.000447455
       0.0511   0.000444683
       0.0512   0.000441947
       0.0513   0.000439246
       0.0514    0.00043658
       0.0515   0.000433949
       0.0516   0.000431352
       0.0517   0.000428787
       0.0518   0.000426256
       0.0519   0.000423756
        0.052   0.000421288
       0.0521   0.000418851
       0.0522   0.000416444
       0.0523   0.000414068
       0.0524   0.000411721
       0.0525   0.000409403
       0.0526   0.000407113
       0.0527   0.000404851
       0.0528   0.000402617
       0.0529   0.000400411
        0.053    0.00039823
       0.0531   0.000396076
       0.0532   0.000393948
       0.0533   0.000391845
       0.0534   0.000389768
       0.0535   0.000387714
       0.0536   0.000385685
       0.0537    0.00038368
       0.0538   0.000381698
       0.0539    0.00037974
        0.054   0.000377804
       0.0541    0.00037589
       0.0542   0.000373998
       0.0543   0.000372128
       0.0544   0.000370279
       0.0545   0.000368451
       0.0546   0.000366644
       0.0547   0.000364857
       0.0548    0.00036309
       0.0549   0.000361343
        0.055   0.000359616
       0.0551   0.000357907
       0.0552   0.000356217
       0.0553   0.000354546
       0.0554   0.000352893
       0.0555   0.000351258
       0.0556   0.000349641
       0.0557   0.000348041
       0.0558   0.000346458
       0.0559   0.000344892
        0.056   0.000343343
       0.0561   0.000341811
       0.0562   0.000340294
       0.0563   0.000338794
       0.0564   0.000337309
       0.0565    0.00033584
       0.0566   0.000334386
       0.0567   0.000332947
       0.0568   0.000331523
       0.0569   0.000330114
        0.057   0.000328719
       0.0571   0.000327339
       0.0572   0.000325972
       0.0573   0.000324619
       0.0574    0.00032328
       0.0575   0.000321954
       0.0576   0.000320641
       0.0577   0.000319342
       0.0578   0.000318055
       0.0579   0.000316782
        0.058    0.00031552
       0.0581   0.000314271
       0.0582   0.000313034
       0.0583    0.00031181
       0.0584   0.000310597
       0.0585   0.000309396
       0.0586   0.000308206
       0.0587   0.000307028
       0.0588   0.000305861
       0.0589   0.000304705
        0.059    0.00030356
       0.0591   0.000302425
       0.0592   0.000301302
       0.0593   0.000300189
       0.0594   0.000299086
       0.0595   0.000297994
       0.0596   0.000296911
       0.0597   0.000295839
       0.0598   0.000294776
       0.0599   0.000293724
         0.06    0.00029268
       0.0601   0.000291647
       0.0602   0.000290622
       0.0603   0.000289607
       0.0604   0.000288601
       0.0605   0.000287604
       0.0606   0.000286616
       0.0607   0.000285636
       0.0608   0.000284665
       0.0609   0.000283703
        0.061   0.000282749
       0.0611   0.000281804
       0.0612   0.000280867
       0.0613   0.000279937
       0.0614   0.000279016
       0.0615   0.000278103
       0.0616   0.000277198
       0.0617     0.0002763
       0.0618   0.000275411
       0.0619   0.000274528
        0.062   0.000273653
       0.0621   0.000272786
       0.0622   0.000271926
       0.0623   0.000271073
       0.0624   0.000270227
       0.0625   0.000269388
       0.0626   0.000268556
       0.0627   0.000267731
       0.0628   0.000266912
       0.0629   0.000266101
        0.063   0.000265296
       0.0631   0.000264497
       0.0632   0.000263705
       0.0633    0.00026292
       0.0634   0.000262141
       0.0635   0.000261368
       0.0636   0.000260601
       0.0637    0.00025984
       0.0638   0.000259085
       0.0639   0.000258337
        0.064   0.000257594
       0.0641   0.000256857
       0.0642   0.000256126
       0.0643     0.0002554
       0.0644    0.00025468
       0.0645   0.000253966
       0.0646   0.000253257
       0.0647   0.000252554
       0.0648   0.000251856
       0.0649   0.000251163
        0.065   0.000250476
       0.0651   0.000249794
       0.0652   0.000249117
       0.0653   0.000248445
       0.0654   0.000247778
       0.0655   0.000247117
       0.0656    0.00024646
       0.0657   0.000245808
       0.0658   0.000245161
       0.0659   0.000244518
        0.066   0.000243881
       0.0661   0.000243248
       0.0662   0.000242619
       0.0663   0.000241996
       0.0664   0.000241377
       0.0665   0.000240762
       0.0666   0.000240151
       0.0667   0.000239546
       0.0668   0.000238944
       0.0669   0.000238347
        0.067   0.000237754
       0.0671   0.000237165
       0.0672    0.00023658
       0.0673      0.000236
       0.0674   0.000235424
       0.0675   0.000234851
       0.0676   0.000234283
       0.0677   0.000233718
       0.0678   0.000233158
       0.0679   0.000232601
        0.068   0.000232049
       0.0681     0.0002315
       0.0682   0.000230955
       0.0683   0.000230413
       0.0684   0.000229875
       0.0685   0.000229341
       0.0686   0.000228811
       0.0687   0.000228284
       0.0688    0.00022776
       0.0689   0.000227241
        0.069   0.000226724
       0.0691   0.000226211
       0.0692   0.000225702
       0.0693   0.000225196
       0.0694   0.000224693
       0.0695   0.000224193
       0.0696   0.000223697
       0.0697   0.000223204
       0.0698   0.000222714
       0.0699   0.000222228
         0.07   0.000221744
       0.0701   0.000221264
       0.0702   0.000220787
       0.0703   0.000220313
       0.0704   0.000219842
       0.0705   0.000219374
       0.0706   0.000218909
       0.0707   0.000218446
       0.0708   0.000217987
       0.0709   0.000217531
        0.071   0.000217077
       0.0711   0.000216627
       0.0712   0.000216179
       0.0713   0.000215734
       0.0714   0.000215292
       0.0715   0.000214852
       0.0716   0.000214416
       0.0717   0.000213982
       0.0718    0.00021355
       0.0719   0.000213121
        0.072   0.000212695
       0.0721   0.000212272
       0.0722   0.000211851
       0.0723   0.000211432
       0.0724   0.000211017
       0.0725   0.000210603
       0.0726   0.000210192
       0.0727   0.000209784
       0.0728   0.000209378
       0.0729   0.000208974
        0.073   0.000208573
       0.0731   0.000208174
       0.0732   0.000207778
       0.0733   0.000207384
       0.0734   0.000206992
       0.0735   0.000206602
       0.0736   0.000206215
       0.0737    0.00020583
       0.0738   0.000205447
       0.0739   0.000205067
        0.074   0.000204689
       0.0741   0.000204312
       0.0742   0.000203938
       0.0743   0.000203567
       0.0744   0.000203197
       0.0745   0.000202829
       0.0746   0.000202464
       0.0747     0.0002021
       0.0748   0.000201739
       0.0749   0.000201379
        0.075   0.000201022
       0.0751   0.000200667
       0.0752   0.000200313
       0.0753   0.000199962
       0.0754   0.000199612
       0.0755   0.000199265
       0.0756   0.000198919
       0.0757   0.000198576
       0.0758   0.000198234
       0.0759   0.000197894
        0.076   0.000197556
       0.0761    0.00019722
       0.0762   0.000196885
       0.0763   0.000196553
       0.0764   0.000196222
       0.0765   0.000195893
       0.0766   0.000195565
       0.0767    0.00019524
       0.0768   0.000194916
       0.0769   0.000194594
        0.077   0.000194274
       0.0771   0.000193955
       0.0772   0.000193638
       0.0773   0.000193323
       0.0774   0.000193009
       0.0775   0.000192698
       0.0776   0.000192387
       0.0777   0.000192079
       0.0778   0.000191771
       0.0779   0.000191466
        0.078   0.000191162
       0.0781    0.00019086
       0.0782   0.000190559
       0.0783    0.00019026
       0.0784   0.000189962
       0.0785   0.000189666
       0.0786   0.000189371
       0.0787   0.000189078
       0.0788   0.000188786
       0.0789   0.000188496
        0.079   0.000188208
       0.0791    0.00018792
       0.0792   0.000187635
       0.0793    0.00018735
       0.0794   0.000187067
       0.0795   0.000186786
       0.0796   0.000186505
       0.0797   0.000186227
       0.0798   0.000185949
       0.0799   0.000185673
         0.08   0.000185399
       0.0801   0.000185125
       0.0802   0.000184853
       0.0803   0.000184583
       0.0804   0.000184314
       0.0805   0.000184046
       0.0806   0.000183779
       0.0807   0.000183513
       0.0808   0.000183249
       0.0809   0.000182987
        0.081   0.000182725
       0.0811   0.000182465
       0.0812   0.000182206
       0.0813   0.000181948
       0.0814   0.000181691
       0.0815   0.000181436
       0.0816   0.000181182
       0.0817   0.000180929
       0.0818   0.000180677
       0.0819   0.000180426
        0.082   0.000180177
       0.0821   0.000179929
       0.0822   0.000179681
       0.0823   0.000179436
       0.0824   0.000179191
       0.0825   0.000178947
       0.0826   0.000178705
       0.0827   0.000178463
       0.0828   0.000178223
       0.0829   0.000177984
        0.083   0.000177746
       0.0831   0.000177509
       0.0832   0.000177273
       0.0833   0.000177038
       0.0834   0.000176804
       0.0835   0.000176571
       0.0836    0.00017634
       0.0837   0.000176109
       0.0838   0.000175879
       0.0839   0.000175651
        0.084   0.000175423
       0.0841   0.000175197
       0.0842   0.000174971
       0.0843   0.000174747
       0.0844   0.000174523
       0.0845   0.000174301
       0.0846   0.000174079
       0.0847   0.000173859
       0.0848   0.000173639
       0.0849    0.00017342
        0.085   0.000173203
       0.0851   0.000172986
       0.0852    0.00017277
       0.0853   0.000172555
       0.0854   0.000172341
       0.0855   0.000172128
       0.0856   0.000171916
       0.0857   0.000171705
       0.0858   0.000171495
       0.0859   0.000171286
        0.086   0.000171077
       0.0861    0.00017087
       0.0862   0.000170663
       0.0863   0.000170457
       0.0864   0.000170252
