57523159877.176178 
57523159877.176178 
57523159877.176178 
57523159877.176178 
57523159877.176178 
57523159877.176178 
57523159877.176178 
57523159877.176178 
57523159877.176178 
57523159877.176178 
57523159877.176178 
57523159877.176178 
57523159877.176178 
57523159877.176178 
57523159877.176178 
57523159877.176178 
57523159877.176178 
57523159877.176178 
57523159877.176178 
57523159877.176178 
57523159877.176178 
57523159877.176178 
57523159877.176178 
57523159877.176178 
57523159877.176178 
57523159877.176178 
57523159877.176178 
57523159877.176178 
57523159877.176178 
57523159877.176178 
57523159877.176178 
57523159877.176178 
57523159877.176178 
57523159877.176178 
57523159877.176178 
57523159877.176178 
57523159877.176178 
57523159877.176178 
57523159877.176178 
57523159877.176178 
57523159877.176178 
57523159877.176178 
57523159877.176178 
57523159877.176178 
57523159877.176155 
57523159877.175972 
57523159877.175163 
57523159877.172974 
57523159877.168365 
57523159877.051140 
57523159876.543114 
57523159875.175385 
57523159872.291443 
57523159799.020554 
57523159481.513214 
57523158626.685837 
57523156824.221390 
57523111038.033310 
57522912583.438278 
57522378293.161713 
57521251781.185646 
57516235043.441246 
57504824064.657845 
57483079179.894775 
57446116016.736557 
57376280168.280289 
57267192245.656548 
57106674775.186005 
56881082003.128044 
56672574419.394806 
56417661122.603378 
56110342804.838203 
55744617355.276619 
55421030177.849121 
55056751657.857445 
54649031356.006340 
54195295918.478897 
53693118754.883514 
53140056228.386330 
52533888435.342987 
51872795391.772110 
51110545295.128616 
50283385478.947624 
49390285480.846909 
48431051441.355133 
47531362326.185547 
46581408368.176361 
45582473111.283905 
44536339422.883850 
43660570310.014000 
42757193889.574539 
41828023598.415504 
40875027875.158653 
40022373483.980827 
39154838548.601662 
38274262564.914612 
37382543816.096878 
36490113185.418488 
35590831754.331345 
34686890501.198868 
33780480590.109203 
32955983339.476669 
32133021655.617481 
31313310191.404980 
30498533252.773823 
29793888240.615936 
29095311744.117245 
28403827840.645615 
27720428155.850636 
27049180359.479435 
26387733552.158012 
25736885110.492794 
25097386743.336807 
24443996982.671242 
23804331541.502151 
23178969134.466667 
22568428982.073750 
21909237558.652344 
21269231661.130379 
20648711867.180634 
20047900865.485813 
19325029957.198681 
18633004376.573967 
17971494755.758087 
17340068831.594578 
16706377557.517469 
16104461598.213545 
15533257044.532570 
14991593468.590784 
14536419154.822170 
14102469643.752523 
13688865436.095440 
13294672954.341597 
12886629861.568567 
12499384361.936352 
12131857793.431707 
11782919176.231504 
11405209371.520454 
11048986282.020845 
10712901926.496302 
10395539473.801691 
9999104964.025532 
9631078469.098125 
9289172966.573605 
8970817269.864977 
8669347176.486542 
8388116445.271646 
8125480921.907863 
7879683739.505848 
7661552834.349022 
7456094002.968994 
7262355551.365893 
7079377142.188681 
6898900690.385540 
6728427483.371970 
6567217341.236147 
6414536356.126660 
6259958238.456117 
6113720990.300903 
5975209752.768747 
5843821390.804166 
5708824384.464883 
5580989987.320837 
5459789616.199454 
5344708688.963619 
5225367149.514221 
5112284878.440258 
5004998533.373334 
4903059677.903559 
4796642943.068277 
4695761484.129282 
4600003925.798110 
4508974007.764971 
4413461105.531264 
4322885835.410302 
4236879648.670434 
4155088938.717112 
4068919430.283410 
3987183794.866654 
3909549618.507915 
3835699039.104672 
3757631214.227154 
3683565971.176298 
3613201913.318339 
3546251681.437856 
3475274824.143777 
3407926816.831557 
3343933237.003874 
3283033116.874217 
3218309885.070134 
3156888515.815181 
3098518285.118491 
3042961307.473265 
2983788099.303837 
2927628406.285560 
2874252496.043158 
2823442847.072203 
2769221525.194685 
2717757776.508187 
2668840587.354375 
2622270530.226390 
2611647592.375489 
2601142512.639511 
2590753230.601378 
2580477732.321155 
