# Probe 0 (0.05 0.05 0.005)
#       Probe             0
#        Time
       0.0001   1.98506e-12
       0.0002    3.3738e-11
       0.0003   1.77528e-10
       0.0004   5.75009e-10
       0.0005   1.43765e-09
       0.0006   3.03903e-09
       0.0007   5.71685e-09
       0.0008    9.8729e-09
       0.0009   1.59731e-08
        0.001   2.45475e-08
       0.0011   3.61903e-08
       0.0012   5.15596e-08
       0.0013   7.13779e-08
       0.0014   9.64316e-08
       0.0015   1.27571e-07
       0.0016   1.65712e-07
       0.0017   2.11831e-07
       0.0018   2.66973e-07
       0.0019   3.32244e-07
        0.002   4.08815e-07
       0.0021   4.97921e-07
       0.0022   6.00861e-07
       0.0023   7.18997e-07
       0.0024   8.53757e-07
       0.0025   1.00663e-06
       0.0026   1.17918e-06
       0.0027   1.37301e-06
       0.0028   1.58981e-06
       0.0029   1.83133e-06
        0.003   2.09937e-06
       0.0031   2.39581e-06
       0.0032   2.72259e-06
       0.0033   3.08171e-06
       0.0034   3.47523e-06
       0.0035   3.90527e-06
       0.0036   4.37403e-06
       0.0037   4.88376e-06
       0.0038   5.43678e-06
       0.0039   6.03547e-06
        0.004   6.68226e-06
       0.0041   7.37967e-06
       0.0042   8.13026e-06
       0.0043   8.93665e-06
       0.0044   9.80154e-06
       0.0045   1.07277e-05
       0.0046   1.17179e-05
       0.0047    1.2775e-05
       0.0048    1.3902e-05
       0.0049   1.51019e-05
        0.005   1.63777e-05
       0.0051   1.77326e-05
       0.0052   1.91697e-05
       0.0053   2.06922e-05
       0.0054   2.23035e-05
       0.0055   2.40069e-05
       0.0056   2.58058e-05
       0.0057   2.77036e-05
       0.0058    2.9704e-05
       0.0059   3.18105e-05
        0.006   3.40267e-05
       0.0061   3.63564e-05
       0.0062   3.88032e-05
       0.0063    4.1371e-05
       0.0064   4.40636e-05
       0.0065    4.6885e-05
       0.0066   4.98391e-05
       0.0067   5.29299e-05
       0.0068   5.61614e-05
       0.0069   5.95379e-05
        0.007   6.30635e-05
       0.0071   6.67423e-05
       0.0072   7.05786e-05
       0.0073   7.45768e-05
       0.0074   7.87412e-05
       0.0075   8.30762e-05
       0.0076   8.75861e-05
       0.0077   9.22756e-05
       0.0078   9.71491e-05
       0.0079   0.000102211
        0.008   0.000107466
       0.0081   0.000112919
       0.0082   0.000118575
       0.0083   0.000124438
       0.0084   0.000130512
       0.0085   0.000136804
       0.0086   0.000143316
       0.0087   0.000150055
       0.0088   0.000157026
       0.0089   0.000164232
        0.009   0.000171679
       0.0091   0.000179372
       0.0092   0.000187316
       0.0093   0.000195516
       0.0094   0.000203976
       0.0095   0.000212702
       0.0096   0.000221699
       0.0097   0.000230972
       0.0098   0.000240525
       0.0099   0.000250364
         0.01   0.000260494
       0.0101   0.000270919
       0.0102   0.000281646
       0.0103   0.000292678
       0.0104   0.000304021
       0.0105    0.00031568
       0.0106    0.00032766
       0.0107   0.000339965
       0.0108   0.000352601
       0.0109   0.000365573
        0.011   0.000378886
       0.0111   0.000392544
       0.0112   0.000406552
       0.0113   0.000420915
       0.0114   0.000435638
       0.0115   0.000450726
       0.0116   0.000466183
       0.0117   0.000482014
       0.0118   0.000498224
       0.0119   0.000514817
        0.012   0.000531798
       0.0121    0.00054917
       0.0122   0.000566939
       0.0123   0.000585109
       0.0124   0.000603684
       0.0125   0.000622669
       0.0126   0.000642066
       0.0127   0.000661881
       0.0128   0.000682117
       0.0129   0.000702778
        0.013   0.000723869
       0.0131   0.000745391
       0.0132    0.00076735
       0.0133   0.000789749
       0.0134    0.00081259
       0.0135   0.000835877
       0.0136   0.000859614
       0.0137   0.000883803
       0.0138   0.000908448
       0.0139    0.00093355
        0.014   0.000959114
       0.0141    0.00098514
       0.0142    0.00101163
       0.0143    0.00103859
       0.0144    0.00106602
       0.0145    0.00109392
       0.0146     0.0011223
       0.0147    0.00115115
       0.0148    0.00118048
       0.0149    0.00121028
        0.015    0.00124057
       0.0151    0.00127133
       0.0152    0.00130258
       0.0153     0.0013343
       0.0154    0.00136652
       0.0155    0.00139921
       0.0156    0.00143238
       0.0157    0.00146604
       0.0158    0.00150018
       0.0159     0.0015348
        0.016    0.00156991
       0.0161    0.00160549
       0.0162    0.00164155
       0.0163    0.00167809
       0.0164    0.00171511
       0.0165     0.0017526
       0.0166    0.00179057
       0.0167      0.001829
       0.0168    0.00186791
       0.0169    0.00190728
        0.017    0.00194711
       0.0171     0.0019874
       0.0172    0.00202815
       0.0173    0.00206936
       0.0174    0.00211101
       0.0175    0.00215311
       0.0176    0.00219565
       0.0177    0.00223863
       0.0178    0.00228204
       0.0179    0.00232589
        0.018    0.00237015
       0.0181    0.00241483
       0.0182    0.00245993
       0.0183    0.00250543
       0.0184    0.00255134
       0.0185    0.00259764
       0.0186    0.00264432
       0.0187    0.00269139
       0.0188    0.00273884
       0.0189    0.00278666
        0.019    0.00283483
       0.0191    0.00288336
       0.0192    0.00293224
       0.0193    0.00298145
       0.0194      0.003031
       0.0195    0.00308087
       0.0196    0.00313105
       0.0197    0.00318153
       0.0198    0.00323232
       0.0199    0.00328339
         0.02    0.00333474
       0.0201    0.00338636
       0.0202    0.00343824
       0.0203    0.00349036
       0.0204    0.00354273
       0.0205    0.00359533
       0.0206    0.00364815
       0.0207    0.00370118
       0.0208     0.0037544
       0.0209    0.00380782
        0.021    0.00386141
       0.0211    0.00391518
       0.0212    0.00396909
       0.0213    0.00402316
       0.0214    0.00407735
       0.0215    0.00413167
       0.0216     0.0041861
       0.0217    0.00424064
       0.0218    0.00429526
       0.0219    0.00434995
        0.022    0.00440472
       0.0221    0.00445953
       0.0222    0.00451439
       0.0223    0.00456928
       0.0224    0.00462419
       0.0225    0.00467911
       0.0226    0.00473402
       0.0227    0.00478892
       0.0228    0.00484378
       0.0229    0.00489861
        0.023    0.00495339
       0.0231     0.0050081
       0.0232    0.00506274
       0.0233    0.00511729
       0.0234    0.00517174
       0.0235    0.00522608
       0.0236     0.0052803
       0.0237    0.00533439
       0.0238    0.00538834
       0.0239    0.00544213
        0.024    0.00549576
       0.0241     0.0055492
       0.0242    0.00560246
       0.0243    0.00565553
       0.0244    0.00570838
       0.0245    0.00576101
       0.0246    0.00581342
       0.0247    0.00586558
       0.0248     0.0059175
       0.0249    0.00596915
        0.025    0.00602054
       0.0251    0.00607165
       0.0252    0.00612246
       0.0253    0.00617299
       0.0254     0.0062232
       0.0255     0.0062731
       0.0256    0.00632268
       0.0257    0.00637193
       0.0258    0.00642084
       0.0259     0.0064694
        0.026     0.0065176
       0.0261    0.00656545
       0.0262    0.00661292
       0.0263    0.00666002
       0.0264    0.00670674
       0.0265    0.00675306
       0.0266    0.00679899
       0.0267    0.00684452
       0.0268    0.00688964
       0.0269    0.00693435
        0.027    0.00697864
       0.0271    0.00702251
       0.0272    0.00706595
       0.0273    0.00710896
       0.0274    0.00715154
       0.0275    0.00719367
       0.0276    0.00723536
       0.0277     0.0072766
       0.0278    0.00731739
       0.0279    0.00735773
        0.028    0.00739762
       0.0281    0.00743704
       0.0282    0.00747601
       0.0283    0.00751451
       0.0284    0.00755255
       0.0285    0.00759013
       0.0286    0.00762723
       0.0287    0.00766387
       0.0288    0.00770004
       0.0289    0.00773575
        0.029    0.00777098
       0.0291    0.00780574
       0.0292    0.00784004
       0.0293    0.00787387
       0.0294    0.00790723
       0.0295    0.00794012
       0.0296    0.00797254
       0.0297    0.00800451
       0.0298      0.008036
       0.0299    0.00806704
         0.03    0.00809761
       0.0301    0.00812773
       0.0302    0.00815739
       0.0303     0.0081866
       0.0304    0.00821535
       0.0305    0.00824366
       0.0306    0.00827152
       0.0307    0.00829894
       0.0308    0.00832591
       0.0309    0.00835245
        0.031    0.00837856
       0.0311    0.00840423
       0.0312    0.00842948
       0.0313     0.0084543
       0.0314    0.00847871
       0.0315     0.0085027
       0.0316    0.00852628
       0.0317    0.00854945
       0.0318    0.00857221
       0.0319    0.00859458
        0.032    0.00861655
       0.0321    0.00863813
       0.0322    0.00865933
       0.0323    0.00868014
       0.0324    0.00870058
       0.0325    0.00872064
       0.0326    0.00874034
       0.0327    0.00875967
       0.0328    0.00877864
       0.0329    0.00879726
        0.033    0.00881553
       0.0331    0.00883346
       0.0332    0.00885105
       0.0333     0.0088683
       0.0334    0.00888522
       0.0335    0.00890182
       0.0336    0.00891809
       0.0337    0.00893405
       0.0338    0.00894971
       0.0339    0.00896505
        0.034     0.0089801
       0.0341    0.00899484
       0.0342     0.0090093
       0.0343    0.00902347
       0.0344    0.00903736
       0.0345    0.00905098
       0.0346    0.00906432
       0.0347    0.00907739
       0.0348     0.0090902
       0.0349    0.00910275
        0.035    0.00911505
       0.0351     0.0091271
       0.0352     0.0091389
       0.0353    0.00915047
       0.0354     0.0091618
       0.0355    0.00917289
       0.0356    0.00918376
       0.0357    0.00919441
       0.0358    0.00920484
       0.0359    0.00921505
        0.036    0.00922506
       0.0361    0.00923486
       0.0362    0.00924445
       0.0363    0.00925385
       0.0364    0.00926306
       0.0365    0.00927207
       0.0366     0.0092809
       0.0367    0.00928954
       0.0368    0.00929801
       0.0369     0.0093063
        0.037    0.00931441
       0.0371    0.00932236
       0.0372    0.00933015
       0.0373    0.00933777
       0.0374    0.00934524
       0.0375    0.00935255
       0.0376    0.00935971
       0.0377    0.00936672
       0.0378    0.00937359
       0.0379    0.00938031
        0.038     0.0093869
       0.0381    0.00939335
       0.0382    0.00939966
       0.0383    0.00940585
       0.0384    0.00941191
       0.0385    0.00941784
       0.0386    0.00942365
       0.0387    0.00942934
       0.0388    0.00943492
       0.0389    0.00944038
        0.039    0.00944573
       0.0391    0.00945097
       0.0392    0.00945611
       0.0393    0.00946114
       0.0394    0.00946606
       0.0395    0.00947089
       0.0396    0.00947562
       0.0397    0.00948025
       0.0398     0.0094848
       0.0399    0.00948925
         0.04    0.00949361
       0.0401    0.00949788
       0.0402    0.00950207
       0.0403    0.00950617
       0.0404    0.00951019
       0.0405    0.00951414
       0.0406      0.009518
       0.0407    0.00952179
       0.0408     0.0095255
       0.0409    0.00952914
        0.041    0.00953271
       0.0411    0.00953621
       0.0412    0.00953964
       0.0413    0.00954301
       0.0414    0.00954631
       0.0415    0.00954954
       0.0416    0.00955272
       0.0417    0.00955583
       0.0418    0.00955888
       0.0419    0.00956188
        0.042    0.00956482
       0.0421     0.0095677
       0.0422    0.00957053
       0.0423     0.0095733
       0.0424    0.00957602
       0.0425    0.00957869
       0.0426    0.00958132
       0.0427    0.00958389
       0.0428    0.00958641
       0.0429    0.00958889
        0.043    0.00959133
       0.0431    0.00959371
       0.0432    0.00959606
       0.0433    0.00959836
       0.0434    0.00960062
       0.0435    0.00960284
       0.0436    0.00960502
       0.0437    0.00960716
       0.0438    0.00960926
       0.0439    0.00961133
        0.044    0.00961336
       0.0441    0.00961535
       0.0442    0.00961731
       0.0443    0.00961923
       0.0444    0.00962112
       0.0445    0.00962298
       0.0446     0.0096248
       0.0447    0.00962659
       0.0448    0.00962836
       0.0449    0.00963009
        0.045    0.00963179
       0.0451    0.00963346
       0.0452    0.00963511
       0.0453    0.00963673
       0.0454    0.00963832
       0.0455    0.00963988
       0.0456    0.00964142
       0.0457    0.00964293
       0.0458    0.00964442
       0.0459    0.00964588
        0.046    0.00964732
       0.0461    0.00964874
       0.0462    0.00965013
       0.0463     0.0096515
       0.0464    0.00965285
       0.0465    0.00965417
       0.0466    0.00965548
       0.0467    0.00965676
       0.0468    0.00965803
       0.0469    0.00965927
        0.047     0.0096605
       0.0471     0.0096617
       0.0472    0.00966289
       0.0473    0.00966406
       0.0474    0.00966521
       0.0475    0.00966634
       0.0476    0.00966746
       0.0477    0.00966855
       0.0478    0.00966964
       0.0479     0.0096707
        0.048    0.00967175
       0.0481    0.00967278
       0.0482     0.0096738
       0.0483    0.00967481
       0.0484    0.00967579
       0.0485    0.00967677
       0.0486    0.00967773
       0.0487    0.00967867
       0.0488    0.00967961
       0.0489    0.00968053
        0.049    0.00968143
       0.0491    0.00968232
       0.0492     0.0096832
       0.0493    0.00968407
       0.0494    0.00968492
       0.0495    0.00968577
       0.0496     0.0096866
       0.0497    0.00968742
       0.0498    0.00968823
       0.0499    0.00968902
         0.05    0.00968981
       0.0501    0.00969058
       0.0502    0.00969135
       0.0503     0.0096921
       0.0504    0.00969285
       0.0505    0.00969358
       0.0506    0.00969431
       0.0507    0.00969502
       0.0508    0.00969572
       0.0509    0.00969642
        0.051    0.00969711
       0.0511    0.00969778
       0.0512    0.00969845
       0.0513    0.00969911
       0.0514    0.00969976
       0.0515    0.00970041
       0.0516    0.00970104
       0.0517    0.00970167
       0.0518    0.00970229
       0.0519     0.0097029
        0.052     0.0097035
       0.0521     0.0097041
       0.0522    0.00970468
       0.0523    0.00970527
       0.0524    0.00970584
       0.0525    0.00970641
       0.0526    0.00970696
       0.0527    0.00970752
       0.0528    0.00970806
       0.0529     0.0097086
        0.053    0.00970914
       0.0531    0.00970966
       0.0532    0.00971018
       0.0533     0.0097107
       0.0534     0.0097112
       0.0535     0.0097117
       0.0536     0.0097122
       0.0537    0.00971269
       0.0538    0.00971317
       0.0539    0.00971365
        0.054    0.00971413
       0.0541    0.00971459
       0.0542    0.00971506
       0.0543    0.00971551
       0.0544    0.00971597
       0.0545    0.00971641
       0.0546    0.00971685
       0.0547    0.00971729
       0.0548    0.00971772
       0.0549    0.00971815
        0.055    0.00971857
       0.0551    0.00971899
       0.0552     0.0097194
       0.0553    0.00971981
       0.0554    0.00972021
       0.0555    0.00972061
       0.0556    0.00972101
       0.0557     0.0097214
       0.0558    0.00972179
       0.0559    0.00972217
        0.056    0.00972255
       0.0561    0.00972292
       0.0562    0.00972329
       0.0563    0.00972366
       0.0564    0.00972402
       0.0565    0.00972438
       0.0566    0.00972474
       0.0567    0.00972509
       0.0568    0.00972544
       0.0569    0.00972578
        0.057    0.00972612
       0.0571    0.00972646
       0.0572    0.00972679
       0.0573    0.00972712
       0.0574    0.00972745
       0.0575    0.00972777
       0.0576    0.00972809
       0.0577    0.00972841
       0.0578    0.00972873
       0.0579    0.00972904
        0.058    0.00972935
       0.0581    0.00972965
       0.0582    0.00972995
       0.0583    0.00973025
       0.0584    0.00973055
       0.0585    0.00973084
       0.0586    0.00973113
       0.0587    0.00973142
       0.0588    0.00973171
       0.0589    0.00973199
        0.059    0.00973227
       0.0591    0.00973255
       0.0592    0.00973282
       0.0593    0.00973309
       0.0594    0.00973336
       0.0595    0.00973363
       0.0596    0.00973389
       0.0597    0.00973416
       0.0598    0.00973441
       0.0599    0.00973467
         0.06    0.00973493
       0.0601    0.00973518
       0.0602    0.00973543
       0.0603    0.00973568
       0.0604    0.00973592
       0.0605    0.00973617
       0.0606    0.00973641
       0.0607    0.00973665
       0.0608    0.00973689
       0.0609    0.00973712
        0.061    0.00973735
       0.0611    0.00973758
       0.0612    0.00973781
       0.0613    0.00973804
       0.0614    0.00973827
       0.0615    0.00973849
       0.0616    0.00973871
       0.0617    0.00973893
       0.0618    0.00973915
       0.0619    0.00973936
        0.062    0.00973958
       0.0621    0.00973979
       0.0622       0.00974
       0.0623    0.00974021
       0.0624    0.00974041
       0.0625    0.00974062
       0.0626    0.00974082
       0.0627    0.00974102
       0.0628    0.00974122
       0.0629    0.00974142
        0.063    0.00974162
       0.0631    0.00974181
       0.0632    0.00974201
       0.0633     0.0097422
       0.0634    0.00974239
       0.0635    0.00974258
       0.0636    0.00974277
       0.0637    0.00974295
       0.0638    0.00974314
       0.0639    0.00974332
        0.064     0.0097435
       0.0641    0.00974368
       0.0642    0.00974386
       0.0643    0.00974404
       0.0644    0.00974421
       0.0645    0.00974439
       0.0646    0.00974456
       0.0647    0.00974473
       0.0648     0.0097449
       0.0649    0.00974507
        0.065    0.00974524
       0.0651    0.00974541
       0.0652    0.00974557
       0.0653    0.00974574
       0.0654     0.0097459
       0.0655    0.00974606
       0.0656    0.00974622
       0.0657    0.00974638
       0.0658    0.00974654
       0.0659     0.0097467
        0.066    0.00974685
       0.0661    0.00974701
       0.0662    0.00974716
       0.0663    0.00974731
       0.0664    0.00974746
       0.0665    0.00974761
       0.0666    0.00974776
       0.0667    0.00974791
       0.0668    0.00974806
       0.0669     0.0097482
        0.067    0.00974835
       0.0671    0.00974849
       0.0672    0.00974864
       0.0673    0.00974878
       0.0674    0.00974892
       0.0675    0.00974906
       0.0676     0.0097492
       0.0677    0.00974933
       0.0678    0.00974947
       0.0679    0.00974961
        0.068    0.00974974
       0.0681    0.00974988
       0.0682    0.00975001
       0.0683    0.00975014
       0.0684    0.00975027
       0.0685     0.0097504
       0.0686    0.00975053
       0.0687    0.00975066
       0.0688    0.00975079
       0.0689    0.00975092
        0.069    0.00975104
       0.0691    0.00975117
       0.0692    0.00975129
       0.0693    0.00975142
       0.0694    0.00975154
       0.0695    0.00975166
       0.0696    0.00975178
       0.0697     0.0097519
       0.0698    0.00975202
       0.0699    0.00975214
         0.07    0.00975226
       0.0701    0.00975238
       0.0702    0.00975249
       0.0703    0.00975261
       0.0704    0.00975273
       0.0705    0.00975284
       0.0706    0.00975295
       0.0707    0.00975307
       0.0708    0.00975318
       0.0709    0.00975329
        0.071     0.0097534
       0.0711    0.00975351
       0.0712    0.00975362
       0.0713    0.00975373
       0.0714    0.00975384
       0.0715    0.00975394
       0.0716    0.00975405
       0.0717    0.00975416
       0.0718    0.00975426
       0.0719    0.00975437
        0.072    0.00975447
       0.0721    0.00975457
       0.0722    0.00975468
       0.0723    0.00975478
       0.0724    0.00975488
       0.0725    0.00975498
       0.0726    0.00975508
       0.0727    0.00975518
       0.0728    0.00975528
       0.0729    0.00975538
        0.073    0.00975548
       0.0731    0.00975558
       0.0732    0.00975567
       0.0733    0.00975577
       0.0734    0.00975587
       0.0735    0.00975596
       0.0736    0.00975605
       0.0737    0.00975615
       0.0738    0.00975624
       0.0739    0.00975634
        0.074    0.00975643
       0.0741    0.00975652
       0.0742    0.00975661
       0.0743     0.0097567
       0.0744    0.00975679
       0.0745    0.00975688
       0.0746    0.00975697
       0.0747    0.00975706
       0.0748    0.00975715
       0.0749    0.00975724
        0.075    0.00975732
       0.0751    0.00975741
       0.0752     0.0097575
       0.0753    0.00975758
       0.0754    0.00975767
       0.0755    0.00975775
       0.0756    0.00975784
       0.0757    0.00975792
       0.0758    0.00975801
       0.0759    0.00975809
        0.076    0.00975817
       0.0761    0.00975825
       0.0762    0.00975833
       0.0763    0.00975842
       0.0764     0.0097585
       0.0765    0.00975858
       0.0766    0.00975866
       0.0767    0.00975874
       0.0768    0.00975882
       0.0769    0.00975889
        0.077    0.00975897
       0.0771    0.00975905
       0.0772    0.00975913
       0.0773    0.00975921
       0.0774    0.00975928
       0.0775    0.00975936
       0.0776    0.00975943
       0.0777    0.00975951
       0.0778    0.00975958
       0.0779    0.00975966
        0.078    0.00975973
       0.0781    0.00975981
       0.0782    0.00975988
       0.0783    0.00975995
       0.0784    0.00976003
       0.0785     0.0097601
       0.0786    0.00976017
       0.0787    0.00976024
       0.0788    0.00976031
       0.0789    0.00976038
        0.079    0.00976046
       0.0791    0.00976053
       0.0792     0.0097606
       0.0793    0.00976066
       0.0794    0.00976073
       0.0795     0.0097608
       0.0796    0.00976087
       0.0797    0.00976094
       0.0798    0.00976101
       0.0799    0.00976107
         0.08    0.00976114
       0.0801    0.00976121
       0.0802    0.00976127
       0.0803    0.00976134
       0.0804    0.00976141
       0.0805    0.00976147
       0.0806    0.00976154
       0.0807     0.0097616
       0.0808    0.00976167
       0.0809    0.00976173
        0.081    0.00976179
       0.0811    0.00976186
       0.0812    0.00976192
       0.0813    0.00976198
       0.0814    0.00976205
       0.0815    0.00976211
       0.0816    0.00976217
       0.0817    0.00976223
       0.0818     0.0097623
       0.0819    0.00976236
        0.082    0.00976242
       0.0821    0.00976248
       0.0822    0.00976254
       0.0823     0.0097626
       0.0824    0.00976266
       0.0825    0.00976272
       0.0826    0.00976278
       0.0827    0.00976284
       0.0828    0.00976289
       0.0829    0.00976295
        0.083    0.00976301
       0.0831    0.00976307
       0.0832    0.00976313
       0.0833    0.00976318
       0.0834    0.00976324
       0.0835     0.0097633
       0.0836    0.00976335
       0.0837    0.00976341
       0.0838    0.00976347
       0.0839    0.00976352
        0.084    0.00976358
       0.0841    0.00976363
       0.0842    0.00976369
       0.0843    0.00976374
       0.0844     0.0097638
       0.0845    0.00976385
       0.0846    0.00976391
       0.0847    0.00976396
       0.0848    0.00976401
       0.0849    0.00976407
        0.085    0.00976412
       0.0851    0.00976417
       0.0852    0.00976423
       0.0853    0.00976428
       0.0854    0.00976433
       0.0855    0.00976438
       0.0856    0.00976444
       0.0857    0.00976449
       0.0858    0.00976454
       0.0859    0.00976459
        0.086    0.00976464
       0.0861    0.00976469
       0.0862    0.00976474
       0.0863    0.00976479
       0.0864    0.00976484
