# Probe 0 (0.05 0.05 0.005)
#       Probe             0
#        Time
       0.0001   0.000976104
       0.0002   0.000976104
       0.0003   0.000976104
       0.0004   0.000976104
       0.0005   0.000976104
       0.0006   0.000976104
       0.0007   0.000976103
       0.0008   0.000976103
       0.0009   0.000976102
        0.001   0.000976102
       0.0011     0.0009761
       0.0012   0.000976099
       0.0013   0.000976097
       0.0014   0.000976094
       0.0015   0.000976091
       0.0016   0.000976088
       0.0017   0.000976083
       0.0018   0.000976077
       0.0019   0.000976071
        0.002   0.000976063
       0.0021   0.000976054
       0.0022   0.000976044
       0.0023   0.000976032
       0.0024   0.000976019
       0.0025   0.000976004
       0.0026   0.000975987
       0.0027   0.000975967
       0.0028   0.000975946
       0.0029   0.000975922
        0.003   0.000975895
       0.0031   0.000975866
       0.0032   0.000975833
       0.0033   0.000975797
       0.0034   0.000975758
       0.0035   0.000975715
       0.0036   0.000975669
       0.0037   0.000975618
       0.0038   0.000975563
       0.0039   0.000975503
        0.004   0.000975439
       0.0041   0.000975369
       0.0042   0.000975295
       0.0043   0.000975214
       0.0044   0.000975128
       0.0045   0.000975036
       0.0046   0.000974938
       0.0047   0.000974832
       0.0048    0.00097472
       0.0049   0.000974601
        0.005   0.000974474
       0.0051   0.000974339
       0.0052   0.000974196
       0.0053   0.000974044
       0.0054   0.000973884
       0.0055   0.000973714
       0.0056   0.000973535
       0.0057   0.000973346
       0.0058   0.000973147
       0.0059   0.000972938
        0.006   0.000972717
       0.0061   0.000972485
       0.0062   0.000972242
       0.0063   0.000971986
       0.0064   0.000971718
       0.0065   0.000971437
       0.0066   0.000971143
       0.0067   0.000970836
       0.0068   0.000970514
       0.0069   0.000970178
        0.007   0.000969827
       0.0071   0.000969461
       0.0072   0.000969079
       0.0073   0.000968681
       0.0074   0.000968266
       0.0075   0.000967835
       0.0076   0.000967386
       0.0077   0.000966919
       0.0078   0.000966434
       0.0079    0.00096593
        0.008   0.000965407
       0.0081   0.000964864
       0.0082   0.000964301
       0.0083   0.000963718
       0.0084   0.000963113
       0.0085   0.000962487
       0.0086   0.000961839
       0.0087   0.000961168
       0.0088   0.000960474
       0.0089   0.000959757
        0.009   0.000959016
       0.0091    0.00095825
       0.0092   0.000957459
       0.0093   0.000956643
       0.0094   0.000955801
       0.0095   0.000954932
       0.0096   0.000954037
       0.0097   0.000953114
       0.0098   0.000952163
       0.0099   0.000951184
         0.01   0.000950175
       0.0101   0.000949138
       0.0102    0.00094807
       0.0103   0.000946972
       0.0104   0.000945843
       0.0105   0.000944682
       0.0106    0.00094349
       0.0107   0.000942265
       0.0108   0.000941007
       0.0109   0.000939716
        0.011   0.000938391
       0.0111   0.000937032
       0.0112   0.000935637
       0.0113   0.000934208
       0.0114   0.000932742
       0.0115    0.00093124
       0.0116   0.000929702
       0.0117   0.000928126
       0.0118   0.000926513
       0.0119   0.000924861
        0.012   0.000923171
       0.0121   0.000921442
       0.0122   0.000919673
       0.0123   0.000917864
       0.0124   0.000916015
       0.0125   0.000914126
       0.0126   0.000912195
       0.0127   0.000910223
       0.0128   0.000908209
       0.0129   0.000906152
        0.013   0.000904053
       0.0131    0.00090191
       0.0132   0.000899725
       0.0133   0.000897495
       0.0134   0.000895222
       0.0135   0.000892904
       0.0136   0.000890541
       0.0137   0.000888133
       0.0138    0.00088568
       0.0139   0.000883182
        0.014   0.000880637
       0.0141   0.000878047
       0.0142    0.00087541
       0.0143   0.000872726
       0.0144   0.000869996
       0.0145   0.000867219
       0.0146   0.000864394
       0.0147   0.000861523
       0.0148   0.000858604
       0.0149   0.000855637
        0.015   0.000852622
       0.0151    0.00084956
       0.0152    0.00084645
       0.0153   0.000843292
       0.0154   0.000840086
       0.0155   0.000836832
       0.0156    0.00083353
       0.0157   0.000830179
       0.0158   0.000826781
       0.0159   0.000823335
        0.016   0.000819841
       0.0161   0.000816299
       0.0162    0.00081271
       0.0163   0.000809073
       0.0164   0.000805388
       0.0165   0.000801656
       0.0166   0.000797877
       0.0167   0.000794052
       0.0168   0.000790179
       0.0169   0.000786261
        0.017   0.000782296
       0.0171   0.000778285
       0.0172   0.000774229
       0.0173   0.000770128
       0.0174   0.000765981
       0.0175   0.000761791
       0.0176   0.000757557
       0.0177   0.000753278
       0.0178   0.000748957
       0.0179   0.000744593
        0.018   0.000740187
       0.0181    0.00073574
       0.0182   0.000731251
       0.0183   0.000726722
       0.0184   0.000722153
       0.0185   0.000717544
       0.0186   0.000712897
       0.0187   0.000708212
       0.0188   0.000703489
       0.0189    0.00069873
        0.019   0.000693935
       0.0191   0.000689104
       0.0192   0.000684239
       0.0193   0.000679341
       0.0194   0.000674409
       0.0195   0.000669445
       0.0196    0.00066445
       0.0197   0.000659425
       0.0198    0.00065437
       0.0199   0.000649287
         0.02   0.000644176
       0.0201   0.000639038
       0.0202   0.000633874
       0.0203   0.000628685
       0.0204   0.000623473
       0.0205   0.000618237
       0.0206    0.00061298
       0.0207   0.000607701
       0.0208   0.000602403
       0.0209   0.000597087
        0.021   0.000591752
       0.0211   0.000586401
       0.0212   0.000581034
       0.0213   0.000575653
       0.0214   0.000570258
       0.0215   0.000564851
       0.0216   0.000559433
       0.0217   0.000554005
       0.0218   0.000548569
       0.0219   0.000543124
        0.022   0.000537673
       0.0221   0.000532217
       0.0222   0.000526756
       0.0223   0.000521293
       0.0224   0.000515827
       0.0225   0.000510361
       0.0226   0.000504895
       0.0227   0.000499431
       0.0228    0.00049397
       0.0229   0.000488513
        0.023    0.00048306
       0.0231   0.000477615
       0.0232   0.000472176
       0.0233   0.000466746
       0.0234   0.000461326
       0.0235   0.000455917
       0.0236    0.00045052
       0.0237   0.000445136
       0.0238   0.000439767
       0.0239   0.000434412
        0.024   0.000429075
       0.0241   0.000423755
       0.0242   0.000418453
       0.0243   0.000413172
       0.0244   0.000407911
       0.0245   0.000402672
       0.0246   0.000397455
       0.0247   0.000392263
       0.0248   0.000387096
       0.0249   0.000381954
        0.025   0.000376839
       0.0251   0.000371752
       0.0252   0.000366694
       0.0253   0.000361665
       0.0254   0.000356667
       0.0255     0.0003517
       0.0256   0.000346765
       0.0257   0.000341863
       0.0258   0.000336995
       0.0259   0.000332161
        0.026   0.000327363
       0.0261   0.000322601
       0.0262   0.000317875
       0.0263   0.000313187
       0.0264   0.000308537
       0.0265   0.000303926
       0.0266   0.000299354
       0.0267   0.000294822
       0.0268   0.000290331
       0.0269   0.000285881
        0.027   0.000281472
       0.0271   0.000277106
       0.0272   0.000272782
       0.0273   0.000268501
       0.0274   0.000264263
       0.0275   0.000260069
       0.0276   0.000255919
       0.0277   0.000251814
       0.0278   0.000247754
       0.0279   0.000243739
        0.028   0.000239769
       0.0281   0.000235844
       0.0282   0.000231966
       0.0283   0.000228133
       0.0284   0.000224347
       0.0285   0.000220607
       0.0286   0.000216913
       0.0287   0.000213266
       0.0288   0.000209666
       0.0289   0.000206112
        0.029   0.000202605
       0.0291   0.000199145
       0.0292   0.000195731
       0.0293   0.000192364
       0.0294   0.000189044
       0.0295    0.00018577
       0.0296   0.000182542
       0.0297   0.000179361
       0.0298   0.000176225
       0.0299   0.000173136
         0.03   0.000170093
       0.0301   0.000167095
       0.0302   0.000164143
       0.0303   0.000161236
       0.0304   0.000158373
       0.0305   0.000155556
       0.0306   0.000152783
       0.0307   0.000150054
       0.0308   0.000147369
       0.0309   0.000144727
        0.031   0.000142129
       0.0311   0.000139573
       0.0312    0.00013706
       0.0313   0.000134589
       0.0314    0.00013216
       0.0315   0.000129772
       0.0316   0.000127425
       0.0317   0.000125119
       0.0318   0.000122853
       0.0319   0.000120626
        0.032   0.000118439
       0.0321   0.000116291
       0.0322   0.000114181
       0.0323    0.00011211
       0.0324   0.000110075
       0.0325   0.000108078
       0.0326   0.000106118
       0.0327   0.000104194
       0.0328   0.000102305
       0.0329   0.000100452
        0.033    9.8633e-05
       0.0331   9.68487e-05
       0.0332   9.50982e-05
       0.0333   9.33809e-05
       0.0334   9.16966e-05
       0.0335   9.00445e-05
       0.0336   8.84244e-05
       0.0337   8.68356e-05
       0.0338   8.52777e-05
       0.0339   8.37503e-05
        0.034   8.22527e-05
       0.0341   8.07847e-05
       0.0342   7.93456e-05
       0.0343    7.7935e-05
       0.0344   7.65525e-05
       0.0345   7.51975e-05
       0.0346   7.38697e-05
       0.0347   7.25684e-05
       0.0348   7.12933e-05
       0.0349   7.00439e-05
        0.035   6.88198e-05
       0.0351   6.76204e-05
       0.0352   6.64454e-05
       0.0353   6.52944e-05
       0.0354   6.41667e-05
       0.0355   6.30621e-05
       0.0356   6.19801e-05
       0.0357   6.09203e-05
       0.0358   5.98822e-05
       0.0359   5.88655e-05
        0.036   5.78697e-05
       0.0361   5.68943e-05
       0.0362   5.59392e-05
       0.0363   5.50037e-05
       0.0364   5.40875e-05
       0.0365   5.31903e-05
       0.0366   5.23117e-05
       0.0367   5.14513e-05
       0.0368   5.06087e-05
       0.0369   4.97835e-05
        0.037   4.89754e-05
       0.0371   4.81841e-05
       0.0372   4.74092e-05
       0.0373   4.66504e-05
       0.0374   4.59072e-05
       0.0375   4.51795e-05
       0.0376   4.44669e-05
       0.0377    4.3769e-05
       0.0378   4.30855e-05
       0.0379   4.24162e-05
        0.038   4.17608e-05
       0.0381   4.11188e-05
       0.0382   4.04901e-05
       0.0383   3.98744e-05
       0.0384   3.92714e-05
       0.0385   3.86807e-05
       0.0386   3.81022e-05
       0.0387   3.75356e-05
       0.0388   3.69806e-05
       0.0389    3.6437e-05
        0.039   3.59044e-05
       0.0391   3.53828e-05
       0.0392   3.48718e-05
       0.0393   3.43711e-05
       0.0394   3.38807e-05
       0.0395   3.34001e-05
       0.0396   3.29293e-05
       0.0397   3.24681e-05
       0.0398   3.20161e-05
       0.0399   3.15732e-05
         0.04   3.11392e-05
       0.0401   3.07138e-05
       0.0402    3.0297e-05
       0.0403   2.98885e-05
       0.0404   2.94881e-05
       0.0405   2.90957e-05
       0.0406    2.8711e-05
       0.0407    2.8334e-05
       0.0408   2.79643e-05
       0.0409   2.76019e-05
        0.041   2.72466e-05
       0.0411   2.68983e-05
       0.0412   2.65567e-05
       0.0413   2.62218e-05
       0.0414   2.58934e-05
       0.0415   2.55713e-05
       0.0416   2.52554e-05
       0.0417   2.49455e-05
       0.0418   2.46416e-05
       0.0419   2.43435e-05
        0.042   2.40511e-05
       0.0421   2.37642e-05
       0.0422   2.34827e-05
       0.0423   2.32066e-05
       0.0424   2.29356e-05
       0.0425   2.26697e-05
       0.0426   2.24087e-05
       0.0427   2.21526e-05
       0.0428   2.19013e-05
       0.0429   2.16546e-05
        0.043   2.14124e-05
       0.0431   2.11746e-05
       0.0432   2.09412e-05
       0.0433   2.07121e-05
       0.0434   2.04871e-05
       0.0435   2.02662e-05
       0.0436   2.00492e-05
       0.0437   1.98361e-05
       0.0438   1.96269e-05
       0.0439   1.94214e-05
        0.044   1.92195e-05
       0.0441   1.90211e-05
       0.0442   1.88263e-05
       0.0443   1.86349e-05
       0.0444   1.84468e-05
       0.0445    1.8262e-05
       0.0446   1.80804e-05
       0.0447   1.79019e-05
       0.0448   1.77265e-05
       0.0449   1.75541e-05
        0.045   1.73847e-05
       0.0451   1.72181e-05
       0.0452   1.70543e-05
       0.0453   1.68933e-05
       0.0454    1.6735e-05
       0.0455   1.65794e-05
       0.0456   1.64263e-05
       0.0457   1.62757e-05
       0.0458   1.61277e-05
       0.0459   1.59821e-05
        0.046   1.58388e-05
       0.0461   1.56979e-05
       0.0462   1.55593e-05
       0.0463   1.54229e-05
       0.0464   1.52888e-05
       0.0465   1.51567e-05
       0.0466   1.50268e-05
       0.0467    1.4899e-05
       0.0468   1.47731e-05
       0.0469   1.46493e-05
        0.047   1.45274e-05
       0.0471   1.44074e-05
       0.0472   1.42892e-05
       0.0473   1.41729e-05
       0.0474   1.40584e-05
       0.0475   1.39456e-05
       0.0476   1.38346e-05
       0.0477   1.37252e-05
       0.0478   1.36176e-05
       0.0479   1.35115e-05
        0.048    1.3407e-05
       0.0481   1.33041e-05
       0.0482   1.32027e-05
       0.0483   1.31029e-05
       0.0484   1.30045e-05
       0.0485   1.29075e-05
       0.0486    1.2812e-05
       0.0487   1.27179e-05
       0.0488   1.26251e-05
       0.0489   1.25337e-05
        0.049   1.24436e-05
       0.0491   1.23547e-05
       0.0492   1.22672e-05
       0.0493   1.21808e-05
       0.0494   1.20958e-05
       0.0495   1.20119e-05
       0.0496   1.19291e-05
       0.0497   1.18476e-05
       0.0498   1.17671e-05
       0.0499   1.16878e-05
         0.05   1.16096e-05
       0.0501   1.15324e-05
       0.0502   1.14563e-05
       0.0503   1.13812e-05
       0.0504   1.13072e-05
       0.0505   1.12341e-05
       0.0506    1.1162e-05
       0.0507   1.10909e-05
       0.0508   1.10207e-05
       0.0509   1.09515e-05
        0.051   1.08832e-05
       0.0511   1.08157e-05
       0.0512   1.07492e-05
       0.0513   1.06835e-05
       0.0514   1.06187e-05
       0.0515   1.05547e-05
       0.0516   1.04915e-05
       0.0517   1.04291e-05
       0.0518   1.03675e-05
       0.0519   1.03067e-05
        0.052   1.02467e-05
       0.0521   1.01874e-05
       0.0522   1.01289e-05
       0.0523   1.00711e-05
       0.0524    1.0014e-05
       0.0525   9.95763e-06
       0.0526   9.90194e-06
       0.0527   9.84693e-06
       0.0528    9.7926e-06
       0.0529   9.73892e-06
        0.053   9.68589e-06
       0.0531    9.6335e-06
       0.0532   9.58174e-06
       0.0533   9.53059e-06
       0.0534   9.48005e-06
       0.0535   9.43011e-06
       0.0536   9.38076e-06
       0.0537   9.33199e-06
       0.0538   9.28379e-06
       0.0539   9.23615e-06
        0.054   9.18906e-06
       0.0541   9.14251e-06
       0.0542    9.0965e-06
       0.0543   9.05101e-06
       0.0544   9.00605e-06
       0.0545   8.96159e-06
       0.0546   8.91763e-06
       0.0547   8.87417e-06
       0.0548    8.8312e-06
       0.0549    8.7887e-06
        0.055   8.74668e-06
       0.0551   8.70512e-06
       0.0552   8.66402e-06
       0.0553   8.62337e-06
       0.0554   8.58317e-06
       0.0555    8.5434e-06
       0.0556   8.50406e-06
       0.0557   8.46515e-06
       0.0558   8.42666e-06
       0.0559   8.38858e-06
        0.056    8.3509e-06
       0.0561   8.31362e-06
       0.0562   8.27674e-06
       0.0563   8.24025e-06
       0.0564   8.20414e-06
       0.0565    8.1684e-06
       0.0566   8.13304e-06
       0.0567   8.09805e-06
       0.0568   8.06341e-06
       0.0569   8.02913e-06
        0.057   7.99521e-06
       0.0571   7.96162e-06
       0.0572   7.92838e-06
       0.0573   7.89548e-06
       0.0574   7.86291e-06
       0.0575   7.83066e-06
       0.0576   7.79874e-06
       0.0577   7.76713e-06
       0.0578   7.73584e-06
       0.0579   7.70486e-06
        0.058   7.67418e-06
       0.0581    7.6438e-06
       0.0582   7.61372e-06
       0.0583   7.58393e-06
       0.0584   7.55443e-06
       0.0585   7.52521e-06
       0.0586   7.49628e-06
       0.0587   7.46762e-06
       0.0588   7.43923e-06
       0.0589   7.41112e-06
        0.059   7.38327e-06
       0.0591   7.35568e-06
       0.0592   7.32836e-06
       0.0593   7.30128e-06
       0.0594   7.27446e-06
       0.0595   7.24789e-06
       0.0596   7.22157e-06
       0.0597   7.19548e-06
       0.0598   7.16964e-06
       0.0599   7.14403e-06
         0.06   7.11866e-06
       0.0601   7.09352e-06
       0.0602    7.0686e-06
       0.0603   7.04391e-06
       0.0604   7.01944e-06
       0.0605   6.99519e-06
       0.0606   6.97115e-06
       0.0607   6.94733e-06
       0.0608   6.92372e-06
       0.0609   6.90031e-06
        0.061   6.87712e-06
       0.0611   6.85412e-06
       0.0612   6.83132e-06
       0.0613   6.80873e-06
       0.0614   6.78632e-06
       0.0615   6.76411e-06
       0.0616    6.7421e-06
       0.0617   6.72027e-06
       0.0618   6.69862e-06
       0.0619   6.67716e-06
        0.062   6.65588e-06
       0.0621   6.63478e-06
       0.0622   6.61386e-06
       0.0623   6.59311e-06
       0.0624   6.57254e-06
       0.0625   6.55213e-06
       0.0626    6.5319e-06
       0.0627   6.51183e-06
       0.0628   6.49193e-06
       0.0629   6.47219e-06
        0.063   6.45261e-06
       0.0631   6.43319e-06
       0.0632   6.41393e-06
       0.0633   6.39482e-06
       0.0634   6.37587e-06
       0.0635   6.35707e-06
       0.0636   6.33842e-06
       0.0637   6.31992e-06
       0.0638   6.30156e-06
       0.0639   6.28335e-06
        0.064   6.26528e-06
       0.0641   6.24736e-06
       0.0642   6.22957e-06
       0.0643   6.21193e-06
       0.0644   6.19442e-06
       0.0645   6.17705e-06
       0.0646   6.15981e-06
       0.0647    6.1427e-06
       0.0648   6.12573e-06
       0.0649   6.10888e-06
        0.065   6.09217e-06
       0.0651   6.07558e-06
       0.0652   6.05911e-06
       0.0653   6.04277e-06
       0.0654   6.02655e-06
       0.0655   6.01046e-06
       0.0656   5.99448e-06
       0.0657   5.97862e-06
       0.0658   5.96288e-06
       0.0659   5.94726e-06
        0.066   5.93175e-06
       0.0661   5.91636e-06
       0.0662   5.90107e-06
       0.0663    5.8859e-06
       0.0664   5.87084e-06
       0.0665   5.85589e-06
       0.0666   5.84105e-06
       0.0667   5.82631e-06
       0.0668   5.81168e-06
       0.0669   5.79716e-06
        0.067   5.78273e-06
       0.0671   5.76841e-06
       0.0672   5.75419e-06
       0.0673   5.74008e-06
       0.0674   5.72606e-06
       0.0675   5.71214e-06
       0.0676   5.69831e-06
       0.0677   5.68459e-06
       0.0678   5.67095e-06
       0.0679   5.65742e-06
        0.068   5.64397e-06
       0.0681   5.63062e-06
       0.0682   5.61736e-06
       0.0683   5.60419e-06
       0.0684   5.59111e-06
       0.0685   5.57812e-06
       0.0686   5.56522e-06
       0.0687    5.5524e-06
       0.0688   5.53967e-06
       0.0689   5.52703e-06
        0.069   5.51447e-06
       0.0691     5.502e-06
       0.0692    5.4896e-06
       0.0693   5.47729e-06
       0.0694   5.46506e-06
       0.0695   5.45291e-06
       0.0696   5.44085e-06
       0.0697   5.42886e-06
       0.0698   5.41694e-06
       0.0699   5.40511e-06
         0.07   5.39335e-06
       0.0701   5.38167e-06
       0.0702   5.37006e-06
       0.0703   5.35853e-06
       0.0704   5.34708e-06
       0.0705   5.33569e-06
       0.0706   5.32438e-06
       0.0707   5.31314e-06
       0.0708   5.30197e-06
       0.0709   5.29087e-06
        0.071   5.27984e-06
       0.0711   5.26888e-06
       0.0712   5.25799e-06
       0.0713   5.24717e-06
       0.0714   5.23642e-06
       0.0715   5.22573e-06
       0.0716    5.2151e-06
       0.0717   5.20455e-06
       0.0718   5.19405e-06
       0.0719   5.18363e-06
        0.072   5.17326e-06
       0.0721   5.16296e-06
       0.0722   5.15272e-06
       0.0723   5.14255e-06
       0.0724   5.13243e-06
       0.0725   5.12238e-06
       0.0726   5.11238e-06
       0.0727   5.10245e-06
       0.0728   5.09258e-06
       0.0729   5.08276e-06
        0.073     5.073e-06
       0.0731    5.0633e-06
       0.0732   5.05366e-06
       0.0733   5.04407e-06
       0.0734   5.03454e-06
       0.0735   5.02507e-06
       0.0736   5.01565e-06
       0.0737   5.00629e-06
       0.0738   4.99698e-06
       0.0739   4.98773e-06
        0.074   4.97852e-06
       0.0741   4.96937e-06
       0.0742   4.96028e-06
       0.0743   4.95123e-06
       0.0744   4.94224e-06
       0.0745    4.9333e-06
       0.0746   4.92441e-06
       0.0747   4.91557e-06
       0.0748   4.90678e-06
       0.0749   4.89804e-06
        0.075   4.88935e-06
       0.0751    4.8807e-06
       0.0752   4.87211e-06
       0.0753   4.86356e-06
       0.0754   4.85506e-06
       0.0755   4.84661e-06
       0.0756    4.8382e-06
       0.0757   4.82984e-06
       0.0758   4.82153e-06
       0.0759   4.81326e-06
        0.076   4.80504e-06
       0.0761   4.79686e-06
       0.0762   4.78873e-06
       0.0763   4.78064e-06
       0.0764   4.77259e-06
       0.0765   4.76459e-06
       0.0766   4.75663e-06
       0.0767   4.74872e-06
       0.0768   4.74084e-06
       0.0769   4.73301e-06
        0.077   4.72522e-06
       0.0771   4.71747e-06
       0.0772   4.70976e-06
       0.0773   4.70209e-06
       0.0774   4.69447e-06
       0.0775   4.68688e-06
       0.0776   4.67933e-06
       0.0777   4.67182e-06
       0.0778   4.66436e-06
       0.0779   4.65693e-06
        0.078   4.64953e-06
       0.0781   4.64218e-06
       0.0782   4.63487e-06
       0.0783   4.62759e-06
       0.0784   4.62035e-06
       0.0785   4.61315e-06
       0.0786   4.60598e-06
       0.0787   4.59885e-06
       0.0788   4.59176e-06
       0.0789    4.5847e-06
        0.079   4.57768e-06
       0.0791   4.57069e-06
       0.0792   4.56374e-06
       0.0793   4.55682e-06
       0.0794   4.54994e-06
       0.0795   4.54309e-06
       0.0796   4.53628e-06
       0.0797    4.5295e-06
       0.0798   4.52275e-06
       0.0799   4.51604e-06
         0.08   4.50936e-06
       0.0801   4.50271e-06
       0.0802    4.4961e-06
       0.0803   4.48952e-06
       0.0804   4.48297e-06
       0.0805   4.47645e-06
       0.0806   4.46996e-06
       0.0807   4.46351e-06
       0.0808   4.45708e-06
       0.0809   4.45069e-06
        0.081   4.44433e-06
       0.0811     4.438e-06
       0.0812    4.4317e-06
       0.0813   4.42543e-06
       0.0814   4.41918e-06
       0.0815   4.41297e-06
       0.0816   4.40679e-06
       0.0817   4.40064e-06
       0.0818   4.39451e-06
       0.0819   4.38842e-06
        0.082   4.38235e-06
       0.0821   4.37632e-06
       0.0822   4.37031e-06
       0.0823   4.36432e-06
       0.0824   4.35837e-06
       0.0825   4.35244e-06
       0.0826   4.34655e-06
       0.0827   4.34067e-06
       0.0828   4.33483e-06
       0.0829   4.32901e-06
        0.083   4.32322e-06
       0.0831   4.31746e-06
       0.0832   4.31172e-06
       0.0833   4.30601e-06
       0.0834   4.30032e-06
       0.0835   4.29466e-06
       0.0836   4.28902e-06
       0.0837   4.28342e-06
       0.0838   4.27783e-06
       0.0839   4.27227e-06
        0.084   4.26674e-06
       0.0841   4.26123e-06
       0.0842   4.25574e-06
       0.0843   4.25028e-06
       0.0844   4.24485e-06
       0.0845   4.23944e-06
       0.0846   4.23405e-06
       0.0847   4.22868e-06
       0.0848   4.22334e-06
       0.0849   4.21802e-06
        0.085   4.21273e-06
       0.0851   4.20746e-06
       0.0852   4.20221e-06
       0.0853   4.19699e-06
       0.0854   4.19178e-06
       0.0855    4.1866e-06
       0.0856   4.18145e-06
       0.0857   4.17631e-06
       0.0858    4.1712e-06
       0.0859   4.16611e-06
        0.086   4.16104e-06
       0.0861   4.15599e-06
       0.0862   4.15096e-06
       0.0863   4.14596e-06
       0.0864   4.14097e-06
