# Probe 0 (0.05 0.05 0.005)
#       Probe             0
#        Time
       0.0001   5.75232e+06
       0.0002   1.15046e+07
       0.0003   1.72569e+07
       0.0004   2.30093e+07
       0.0005   2.87616e+07
       0.0006   3.45139e+07
       0.0007   4.02662e+07
       0.0008   4.60185e+07
       0.0009   5.17708e+07
        0.001   5.75232e+07
       0.0011   6.32755e+07
       0.0012   6.90278e+07
       0.0013   7.47801e+07
       0.0014   8.05324e+07
       0.0015   8.62847e+07
       0.0016    9.2037e+07
       0.0017   9.77893e+07
       0.0018   1.03542e+08
       0.0019   1.09294e+08
        0.002   1.15046e+08
       0.0021   1.20798e+08
       0.0022   1.26551e+08
       0.0023   1.32303e+08
       0.0024   1.38055e+08
       0.0025   1.43807e+08
       0.0026   1.49559e+08
       0.0027   1.55312e+08
       0.0028   1.61064e+08
       0.0029   1.66816e+08
        0.003   1.72568e+08
       0.0031    1.7832e+08
       0.0032   1.84072e+08
       0.0033   1.89824e+08
       0.0034   1.95575e+08
       0.0035   2.01327e+08
       0.0036   2.07079e+08
       0.0037   2.12831e+08
       0.0038   2.18582e+08
       0.0039   2.24334e+08
        0.004   2.30085e+08
       0.0041   2.35837e+08
       0.0042   2.41588e+08
       0.0043   2.47339e+08
       0.0044    2.5309e+08
       0.0045   2.58841e+08
       0.0046   2.64592e+08
       0.0047   2.70342e+08
       0.0048   2.76093e+08
       0.0049   2.81843e+08
        0.005   2.87593e+08
       0.0051   2.93343e+08
       0.0052   2.99093e+08
       0.0053   3.04842e+08
       0.0054   3.10591e+08
       0.0055   3.16341e+08
       0.0056   3.22089e+08
       0.0057   3.27838e+08
       0.0058   3.33586e+08
       0.0059   3.39334e+08
        0.006   3.45082e+08
       0.0061   3.50829e+08
       0.0062   3.56576e+08
       0.0063   3.62323e+08
       0.0064   3.68069e+08
       0.0065   3.73815e+08
       0.0066   3.79561e+08
       0.0067   3.85306e+08
       0.0068   3.91051e+08
       0.0069   3.96795e+08
        0.007   4.02538e+08
       0.0071   4.08282e+08
       0.0072   4.14024e+08
       0.0073   4.19766e+08
       0.0074   4.25508e+08
       0.0075   4.31249e+08
       0.0076   4.36989e+08
       0.0077   4.42729e+08
       0.0078   4.48468e+08
       0.0079   4.54206e+08
        0.008   4.59943e+08
       0.0081    4.6568e+08
       0.0082   4.71416e+08
       0.0083   4.77151e+08
       0.0084   4.82886e+08
       0.0085   4.88619e+08
       0.0086   4.94352e+08
       0.0087   5.00083e+08
       0.0088   5.05814e+08
       0.0089   5.11543e+08
        0.009   5.17272e+08
       0.0091   5.22999e+08
       0.0092   5.28726e+08
       0.0093   5.34451e+08
       0.0094   5.40175e+08
       0.0095   5.45898e+08
       0.0096   5.51619e+08
       0.0097   5.57339e+08
       0.0098   5.63058e+08
       0.0099   5.68775e+08
         0.01   5.74491e+08
       0.0101   5.80206e+08
       0.0102   5.85919e+08
       0.0103    5.9163e+08
       0.0104    5.9734e+08
       0.0105   6.03048e+08
       0.0106   6.08755e+08
       0.0107   6.14459e+08
       0.0108   6.20162e+08
       0.0109   6.25863e+08
        0.011   6.31562e+08
       0.0111   6.37259e+08
       0.0112   6.42954e+08
       0.0113   6.48647e+08
       0.0114   6.54338e+08
       0.0115   6.60027e+08
       0.0116   6.65713e+08
       0.0117   6.71397e+08
       0.0118   6.77079e+08
       0.0119   6.82758e+08
        0.012   6.88435e+08
       0.0121    6.9411e+08
       0.0122   6.99781e+08
       0.0123    7.0545e+08
       0.0124   7.11117e+08
       0.0125    7.1678e+08
       0.0126   7.22441e+08
       0.0127   7.28099e+08
       0.0128   7.33753e+08
       0.0129   7.39405e+08
        0.013   7.45053e+08
       0.0131   7.50699e+08
       0.0132   7.56341e+08
       0.0133   7.61979e+08
       0.0134   7.67614e+08
       0.0135   7.73246e+08
       0.0136   7.78874e+08
       0.0137   7.84499e+08
       0.0138   7.90119e+08
       0.0139   7.95736e+08
        0.014   8.01349e+08
       0.0141   8.06958e+08
       0.0142   8.12563e+08
       0.0143   8.18163e+08
       0.0144    8.2376e+08
       0.0145   8.29352e+08
       0.0146    8.3494e+08
       0.0147   8.40523e+08
       0.0148   8.46102e+08
       0.0149   8.51676e+08
        0.015   8.57245e+08
       0.0151   8.62809e+08
       0.0152   8.68369e+08
       0.0153   8.73923e+08
       0.0154   8.79472e+08
       0.0155   8.85016e+08
       0.0156   8.90555e+08
       0.0157   8.96088e+08
       0.0158   9.01616e+08
       0.0159   9.07138e+08
        0.016   9.12654e+08
       0.0161   9.18165e+08
       0.0162   9.23669e+08
       0.0163   9.29168e+08
       0.0164    9.3466e+08
       0.0165   9.40146e+08
       0.0166   9.45626e+08
       0.0167   9.51099e+08
       0.0168   9.56566e+08
       0.0169   9.62026e+08
        0.017   9.67479e+08
       0.0171   9.72926e+08
       0.0172   9.78365e+08
       0.0173   9.83797e+08
       0.0174   9.89222e+08
       0.0175    9.9464e+08
       0.0176   1.00005e+09
       0.0177   1.00545e+09
       0.0178   1.01085e+09
       0.0179   1.01624e+09
        0.018   1.02161e+09
       0.0181   1.02699e+09
       0.0182   1.03235e+09
       0.0183    1.0377e+09
       0.0184   1.04305e+09
       0.0185   1.04839e+09
       0.0186   1.05372e+09
       0.0187   1.05904e+09
       0.0188   1.06435e+09
       0.0189   1.06965e+09
        0.019   1.07494e+09
       0.0191   1.08023e+09
       0.0192    1.0855e+09
       0.0193   1.09077e+09
       0.0194   1.09602e+09
       0.0195   1.10127e+09
       0.0196    1.1065e+09
       0.0197   1.11173e+09
       0.0198   1.11695e+09
       0.0199   1.12215e+09
         0.02   1.12735e+09
       0.0201   1.13253e+09
       0.0202    1.1377e+09
       0.0203   1.14287e+09
       0.0204   1.14802e+09
       0.0205   1.15316e+09
       0.0206   1.15829e+09
       0.0207   1.16341e+09
       0.0208   1.16851e+09
       0.0209   1.17361e+09
        0.021   1.17869e+09
       0.0211   1.18376e+09
       0.0212   1.18882e+09
       0.0213   1.19387e+09
       0.0214    1.1989e+09
       0.0215   1.20393e+09
       0.0216   1.20894e+09
       0.0217   1.21393e+09
       0.0218   1.21892e+09
       0.0219   1.22389e+09
        0.022   1.22885e+09
       0.0221   1.23379e+09
       0.0222   1.23872e+09
       0.0223   1.24364e+09
       0.0224   1.24855e+09
       0.0225   1.25344e+09
       0.0226   1.25832e+09
       0.0227   1.26318e+09
       0.0228   1.26803e+09
       0.0229   1.27286e+09
        0.023   1.27768e+09
       0.0231   1.28249e+09
       0.0232   1.28728e+09
       0.0233   1.29206e+09
       0.0234   1.29682e+09
       0.0235   1.30156e+09
       0.0236   1.30629e+09
       0.0237   1.31101e+09
       0.0238   1.31571e+09
       0.0239   1.32039e+09
        0.024   1.32506e+09
       0.0241   1.32972e+09
       0.0242   1.33435e+09
       0.0243   1.33898e+09
       0.0244   1.34358e+09
       0.0245   1.34817e+09
       0.0246   1.35274e+09
       0.0247    1.3573e+09
       0.0248   1.36184e+09
       0.0249   1.36636e+09
        0.025   1.37087e+09
       0.0251   1.37536e+09
       0.0252   1.37983e+09
       0.0253   1.38428e+09
       0.0254   1.38872e+09
       0.0255   1.39314e+09
       0.0256   1.39754e+09
       0.0257   1.40192e+09
       0.0258   1.40629e+09
       0.0259   1.41064e+09
        0.026   1.41497e+09
       0.0261   1.41928e+09
       0.0262   1.42358e+09
       0.0263   1.42786e+09
       0.0264   1.43211e+09
       0.0265   1.43635e+09
       0.0266   1.44058e+09
       0.0267   1.44478e+09
       0.0268   1.44896e+09
       0.0269   1.45313e+09
        0.027   1.45728e+09
       0.0271    1.4614e+09
       0.0272   1.46551e+09
       0.0273    1.4696e+09
       0.0274   1.47367e+09
       0.0275   1.47772e+09
       0.0276   1.48175e+09
       0.0277   1.48577e+09
       0.0278   1.48976e+09
       0.0279   1.49373e+09
        0.028   1.49769e+09
       0.0281   1.50162e+09
       0.0282   1.50554e+09
       0.0283   1.50943e+09
       0.0284   1.51331e+09
       0.0285   1.51716e+09
       0.0286     1.521e+09
       0.0287   1.52482e+09
       0.0288   1.52861e+09
       0.0289   1.53239e+09
        0.029   1.53614e+09
       0.0291   1.53988e+09
       0.0292    1.5436e+09
       0.0293   1.54729e+09
       0.0294   1.55097e+09
       0.0295   1.55462e+09
       0.0296   1.55826e+09
       0.0297   1.56187e+09
       0.0298   1.56547e+09
       0.0299   1.56904e+09
         0.03    1.5726e+09
       0.0301   1.57613e+09
       0.0302   1.57964e+09
       0.0303   1.58314e+09
       0.0304   1.58661e+09
       0.0305   1.59006e+09
       0.0306    1.5935e+09
       0.0307   1.59691e+09
       0.0308    1.6003e+09
       0.0309   1.60367e+09
        0.031   1.60703e+09
       0.0311   1.61036e+09
       0.0312   1.61367e+09
       0.0313   1.61696e+09
       0.0314   1.62023e+09
       0.0315   1.62348e+09
       0.0316   1.62671e+09
       0.0317   1.62992e+09
       0.0318   1.63312e+09
       0.0319   1.63629e+09
        0.032   1.63944e+09
       0.0321   1.64257e+09
       0.0322   1.64568e+09
       0.0323   1.64877e+09
       0.0324   1.65184e+09
       0.0325    1.6549e+09
       0.0326   1.65793e+09
       0.0327   1.66094e+09
       0.0328   1.66393e+09
       0.0329   1.66691e+09
        0.033   1.66986e+09
       0.0331    1.6728e+09
       0.0332   1.67571e+09
       0.0333   1.67861e+09
       0.0334   1.68149e+09
       0.0335   1.68435e+09
       0.0336   1.68719e+09
       0.0337   1.69001e+09
       0.0338   1.69281e+09
       0.0339   1.69559e+09
        0.034   1.69836e+09
       0.0341    1.7011e+09
       0.0342   1.70383e+09
       0.0343   1.70654e+09
       0.0344   1.70923e+09
       0.0345    1.7119e+09
       0.0346   1.71455e+09
       0.0347   1.71719e+09
       0.0348   1.71981e+09
       0.0349   1.72241e+09
        0.035   1.72499e+09
       0.0351   1.72756e+09
       0.0352    1.7301e+09
       0.0353   1.73263e+09
       0.0354   1.73515e+09
       0.0355   1.73764e+09
       0.0356   1.74012e+09
       0.0357   1.74258e+09
       0.0358   1.74502e+09
       0.0359   1.74745e+09
        0.036   1.74986e+09
       0.0361   1.75226e+09
       0.0362   1.75463e+09
       0.0363     1.757e+09
       0.0364   1.75934e+09
       0.0365   1.76167e+09
       0.0366   1.76398e+09
       0.0367   1.76628e+09
       0.0368   1.76856e+09
       0.0369   1.77082e+09
        0.037   1.77307e+09
       0.0371   1.77531e+09
       0.0372   1.77753e+09
       0.0373   1.77973e+09
       0.0374   1.78192e+09
       0.0375   1.78409e+09
       0.0376   1.78625e+09
       0.0377   1.78839e+09
       0.0378   1.79052e+09
       0.0379   1.79264e+09
        0.038   1.79474e+09
       0.0381   1.79682e+09
       0.0382   1.79889e+09
       0.0383   1.80095e+09
       0.0384   1.80299e+09
       0.0385   1.80502e+09
       0.0386   1.80704e+09
       0.0387   1.80904e+09
       0.0388   1.81103e+09
       0.0389     1.813e+09
        0.039   1.81496e+09
       0.0391   1.81691e+09
       0.0392   1.81885e+09
       0.0393   1.82077e+09
       0.0394   1.82268e+09
       0.0395   1.82458e+09
       0.0396   1.82646e+09
       0.0397   1.82833e+09
       0.0398   1.83019e+09
       0.0399   1.83204e+09
         0.04   1.83388e+09
       0.0401    1.8357e+09
       0.0402   1.83751e+09
       0.0403   1.83931e+09
       0.0404    1.8411e+09
       0.0405   1.84287e+09
       0.0406   1.84464e+09
       0.0407   1.84639e+09
       0.0408   1.84813e+09
       0.0409   1.84986e+09
        0.041   1.85158e+09
       0.0411   1.85329e+09
       0.0412   1.85499e+09
       0.0413   1.85667e+09
       0.0414   1.85835e+09
       0.0415   1.86001e+09
       0.0416   1.86167e+09
       0.0417   1.86331e+09
       0.0418   1.86495e+09
       0.0419   1.86657e+09
        0.042   1.86819e+09
       0.0421   1.86979e+09
       0.0422   1.87138e+09
       0.0423   1.87297e+09
       0.0424   1.87454e+09
       0.0425   1.87611e+09
       0.0426   1.87766e+09
       0.0427   1.87921e+09
       0.0428   1.88075e+09
       0.0429   1.88227e+09
        0.043   1.88379e+09
       0.0431    1.8853e+09
       0.0432    1.8868e+09
       0.0433   1.88829e+09
       0.0434   1.88977e+09
       0.0435   1.89125e+09
       0.0436   1.89271e+09
       0.0437   1.89417e+09
       0.0438   1.89562e+09
       0.0439   1.89706e+09
        0.044   1.89849e+09
       0.0441   1.89991e+09
       0.0442   1.90133e+09
       0.0443   1.90273e+09
       0.0444   1.90413e+09
       0.0445   1.90552e+09
       0.0446   1.90691e+09
       0.0447   1.90828e+09
       0.0448   1.90965e+09
       0.0449   1.91101e+09
        0.045   1.91236e+09
       0.0451   1.91371e+09
       0.0452   1.91504e+09
       0.0453   1.91638e+09
       0.0454    1.9177e+09
       0.0455   1.91901e+09
       0.0456   1.92032e+09
       0.0457   1.92162e+09
       0.0458   1.92292e+09
       0.0459   1.92421e+09
        0.046   1.92549e+09
       0.0461   1.92676e+09
       0.0462   1.92803e+09
       0.0463   1.92929e+09
       0.0464   1.93055e+09
       0.0465   1.93179e+09
       0.0466   1.93303e+09
       0.0467   1.93427e+09
       0.0468    1.9355e+09
       0.0469   1.93672e+09
        0.047   1.93794e+09
       0.0471   1.93915e+09
       0.0472   1.94035e+09
       0.0473   1.94155e+09
       0.0474   1.94274e+09
       0.0475   1.94393e+09
       0.0476   1.94511e+09
       0.0477   1.94628e+09
       0.0478   1.94745e+09
       0.0479   1.94861e+09
        0.048   1.94977e+09
       0.0481   1.95092e+09
       0.0482   1.95206e+09
       0.0483   1.95321e+09
       0.0484   1.95434e+09
       0.0485   1.95547e+09
       0.0486   1.95659e+09
       0.0487   1.95771e+09
       0.0488   1.95883e+09
       0.0489   1.95993e+09
        0.049   1.96104e+09
       0.0491   1.96214e+09
       0.0492   1.96323e+09
       0.0493   1.96432e+09
       0.0494    1.9654e+09
       0.0495   1.96648e+09
       0.0496   1.96755e+09
       0.0497   1.96862e+09
       0.0498   1.96968e+09
       0.0499   1.97074e+09
         0.05   1.97179e+09
       0.0501   1.97284e+09
       0.0502   1.97389e+09
       0.0503   1.97493e+09
       0.0504   1.97596e+09
       0.0505     1.977e+09
       0.0506   1.97802e+09
       0.0507   1.97904e+09
       0.0508   1.98006e+09
       0.0509   1.98108e+09
        0.051   1.98208e+09
       0.0511   1.98309e+09
       0.0512   1.98409e+09
       0.0513   1.98509e+09
       0.0514   1.98608e+09
       0.0515   1.98707e+09
       0.0516   1.98805e+09
       0.0517   1.98903e+09
       0.0518   1.99001e+09
       0.0519   1.99098e+09
        0.052   1.99195e+09
       0.0521   1.99291e+09
       0.0522   1.99387e+09
       0.0523   1.99483e+09
       0.0524   1.99578e+09
       0.0525   1.99673e+09
       0.0526   1.99767e+09
       0.0527   1.99861e+09
       0.0528   1.99955e+09
       0.0529   2.00048e+09
        0.053   2.00141e+09
       0.0531   2.00234e+09
       0.0532   2.00326e+09
       0.0533   2.00418e+09
       0.0534    2.0051e+09
       0.0535   2.00601e+09
       0.0536   2.00692e+09
       0.0537   2.00782e+09
       0.0538   2.00873e+09
       0.0539   2.00963e+09
        0.054   2.01052e+09
       0.0541   2.01141e+09
       0.0542    2.0123e+09
       0.0543   2.01319e+09
       0.0544   2.01407e+09
       0.0545   2.01495e+09
       0.0546   2.01582e+09
       0.0547    2.0167e+09
       0.0548   2.01756e+09
       0.0549   2.01843e+09
        0.055   2.01929e+09
       0.0551   2.02015e+09
       0.0552   2.02101e+09
       0.0553   2.02186e+09
       0.0554   2.02272e+09
       0.0555   2.02356e+09
       0.0556   2.02441e+09
       0.0557   2.02525e+09
       0.0558   2.02609e+09
       0.0559   2.02693e+09
        0.056   2.02776e+09
       0.0561   2.02859e+09
       0.0562   2.02942e+09
       0.0563   2.03024e+09
       0.0564   2.03106e+09
       0.0565   2.03188e+09
       0.0566    2.0327e+09
       0.0567   2.03351e+09
       0.0568   2.03432e+09
       0.0569   2.03513e+09
        0.057   2.03594e+09
       0.0571   2.03674e+09
       0.0572   2.03754e+09
       0.0573   2.03834e+09
       0.0574   2.03913e+09
       0.0575   2.03993e+09
       0.0576   2.04072e+09
       0.0577   2.04151e+09
       0.0578   2.04229e+09
       0.0579   2.04307e+09
        0.058   2.04385e+09
       0.0581   2.04463e+09
       0.0582   2.04541e+09
       0.0583   2.04618e+09
       0.0584   2.04695e+09
       0.0585   2.04772e+09
       0.0586   2.04848e+09
       0.0587   2.04925e+09
       0.0588   2.05001e+09
       0.0589   2.05077e+09
        0.059   2.05152e+09
       0.0591   2.05228e+09
       0.0592   2.05303e+09
       0.0593   2.05378e+09
       0.0594   2.05452e+09
       0.0595   2.05527e+09
       0.0596   2.05601e+09
       0.0597   2.05675e+09
       0.0598   2.05749e+09
       0.0599   2.05823e+09
         0.06   2.05896e+09
       0.0601   2.05969e+09
       0.0602   2.06042e+09
       0.0603   2.06115e+09
       0.0604   2.06188e+09
       0.0605    2.0626e+09
       0.0606   2.06332e+09
       0.0607   2.06404e+09
       0.0608   2.06476e+09
       0.0609   2.06547e+09
        0.061   2.06619e+09
       0.0611    2.0669e+09
       0.0612   2.06761e+09
       0.0613   2.06831e+09
       0.0614   2.06902e+09
       0.0615   2.06972e+09
       0.0616   2.07042e+09
       0.0617   2.07112e+09
       0.0618   2.07182e+09
       0.0619   2.07252e+09
        0.062   2.07321e+09
       0.0621    2.0739e+09
       0.0622   2.07459e+09
       0.0623   2.07528e+09
       0.0624   2.07597e+09
       0.0625   2.07665e+09
       0.0626   2.07733e+09
       0.0627   2.07801e+09
       0.0628   2.07869e+09
       0.0629   2.07937e+09
        0.063   2.08005e+09
       0.0631   2.08072e+09
       0.0632   2.08139e+09
       0.0633   2.08206e+09
       0.0634   2.08273e+09
       0.0635    2.0834e+09
       0.0636   2.08406e+09
       0.0637   2.08473e+09
       0.0638   2.08539e+09
       0.0639   2.08605e+09
        0.064   2.08671e+09
       0.0641   2.08736e+09
       0.0642   2.08802e+09
       0.0643   2.08867e+09
       0.0644   2.08932e+09
       0.0645   2.08997e+09
       0.0646   2.09062e+09
       0.0647   2.09127e+09
       0.0648   2.09192e+09
       0.0649   2.09256e+09
        0.065    2.0932e+09
       0.0651   2.09384e+09
       0.0652   2.09448e+09
       0.0653   2.09512e+09
       0.0654   2.09575e+09
       0.0655   2.09639e+09
       0.0656   2.09702e+09
       0.0657   2.09765e+09
       0.0658   2.09828e+09
       0.0659   2.09891e+09
        0.066   2.09954e+09
       0.0661   2.10016e+09
       0.0662   2.10079e+09
       0.0663   2.10141e+09
       0.0664   2.10203e+09
       0.0665   2.10265e+09
       0.0666   2.10327e+09
       0.0667   2.10389e+09
       0.0668    2.1045e+09
       0.0669   2.10512e+09
        0.067   2.10573e+09
       0.0671   2.10634e+09
       0.0672   2.10695e+09
       0.0673   2.10756e+09
       0.0674   2.10817e+09
       0.0675   2.10877e+09
       0.0676   2.10938e+09
       0.0677   2.10998e+09
       0.0678   2.11058e+09
       0.0679   2.11118e+09
        0.068   2.11178e+09
       0.0681   2.11238e+09
       0.0682   2.11297e+09
       0.0683   2.11357e+09
       0.0684   2.11416e+09
       0.0685   2.11476e+09
       0.0686   2.11535e+09
       0.0687   2.11594e+09
       0.0688   2.11653e+09
       0.0689   2.11711e+09
        0.069    2.1177e+09
       0.0691   2.11828e+09
       0.0692   2.11887e+09
       0.0693   2.11945e+09
       0.0694   2.12003e+09
       0.0695   2.12061e+09
       0.0696   2.12119e+09
       0.0697   2.12177e+09
       0.0698   2.12234e+09
       0.0699   2.12292e+09
         0.07   2.12349e+09
       0.0701   2.12407e+09
       0.0702   2.12464e+09
       0.0703   2.12521e+09
       0.0704   2.12578e+09
       0.0705   2.12634e+09
       0.0706   2.12691e+09
       0.0707   2.12748e+09
       0.0708   2.12804e+09
       0.0709   2.12861e+09
        0.071   2.12917e+09
       0.0711   2.12973e+09
       0.0712   2.13029e+09
       0.0713   2.13085e+09
       0.0714   2.13141e+09
       0.0715   2.13196e+09
       0.0716   2.13252e+09
       0.0717   2.13307e+09
       0.0718   2.13363e+09
       0.0719   2.13418e+09
        0.072   2.13473e+09
       0.0721   2.13528e+09
       0.0722   2.13583e+09
       0.0723   2.13638e+09
       0.0724   2.13692e+09
       0.0725   2.13747e+09
       0.0726   2.13801e+09
       0.0727   2.13856e+09
       0.0728    2.1391e+09
       0.0729   2.13964e+09
        0.073   2.14018e+09
       0.0731   2.14072e+09
       0.0732   2.14126e+09
       0.0733    2.1418e+09
       0.0734   2.14234e+09
       0.0735   2.14287e+09
       0.0736   2.14341e+09
       0.0737   2.14394e+09
       0.0738   2.14447e+09
       0.0739   2.14501e+09
        0.074   2.14554e+09
       0.0741   2.14607e+09
       0.0742    2.1466e+09
       0.0743   2.14712e+09
       0.0744   2.14765e+09
       0.0745   2.14818e+09
       0.0746    2.1487e+09
       0.0747   2.14922e+09
       0.0748   2.14975e+09
       0.0749   2.15027e+09
        0.075   2.15079e+09
       0.0751   2.15131e+09
       0.0752   2.15183e+09
       0.0753   2.15235e+09
       0.0754   2.15287e+09
       0.0755   2.15338e+09
       0.0756    2.1539e+09
       0.0757   2.15441e+09
       0.0758   2.15493e+09
       0.0759   2.15544e+09
        0.076   2.15595e+09
       0.0761   2.15646e+09
       0.0762   2.15697e+09
       0.0763   2.15748e+09
       0.0764   2.15799e+09
       0.0765    2.1585e+09
       0.0766   2.15901e+09
       0.0767   2.15951e+09
       0.0768   2.16002e+09
       0.0769   2.16052e+09
        0.077   2.16103e+09
       0.0771   2.16153e+09
       0.0772   2.16203e+09
       0.0773   2.16253e+09
       0.0774   2.16303e+09
       0.0775   2.16353e+09
       0.0776   2.16403e+09
       0.0777   2.16453e+09
       0.0778   2.16502e+09
       0.0779   2.16552e+09
        0.078   2.16601e+09
       0.0781   2.16651e+09
       0.0782     2.167e+09
       0.0783   2.16749e+09
       0.0784   2.16798e+09
       0.0785   2.16848e+09
       0.0786   2.16897e+09
       0.0787   2.16946e+09
       0.0788   2.16994e+09
       0.0789   2.17043e+09
        0.079   2.17092e+09
       0.0791    2.1714e+09
       0.0792   2.17189e+09
       0.0793   2.17237e+09
       0.0794   2.17286e+09
       0.0795   2.17334e+09
       0.0796   2.17382e+09
       0.0797   2.17431e+09
       0.0798   2.17479e+09
       0.0799   2.17527e+09
         0.08   2.17575e+09
       0.0801   2.17622e+09
       0.0802    2.1767e+09
       0.0803   2.17718e+09
       0.0804   2.17766e+09
       0.0805   2.17813e+09
       0.0806   2.17861e+09
       0.0807   2.17908e+09
       0.0808   2.17955e+09
       0.0809   2.18003e+09
        0.081    2.1805e+09
       0.0811   2.18097e+09
       0.0812   2.18144e+09
       0.0813   2.18191e+09
       0.0814   2.18238e+09
       0.0815   2.18285e+09
       0.0816   2.18332e+09
       0.0817   2.18378e+09
       0.0818   2.18425e+09
       0.0819   2.18471e+09
        0.082   2.18518e+09
       0.0821   2.18564e+09
       0.0822   2.18611e+09
       0.0823   2.18657e+09
       0.0824   2.18703e+09
       0.0825   2.18749e+09
       0.0826   2.18795e+09
       0.0827   2.18841e+09
       0.0828   2.18887e+09
       0.0829   2.18933e+09
        0.083   2.18979e+09
       0.0831   2.19025e+09
       0.0832    2.1907e+09
       0.0833   2.19116e+09
       0.0834   2.19162e+09
       0.0835   2.19207e+09
       0.0836   2.19252e+09
       0.0837   2.19298e+09
       0.0838   2.19343e+09
       0.0839   2.19388e+09
        0.084   2.19433e+09
       0.0841   2.19479e+09
       0.0842   2.19524e+09
       0.0843   2.19568e+09
       0.0844   2.19613e+09
       0.0845   2.19658e+09
       0.0846   2.19703e+09
       0.0847   2.19748e+09
       0.0848   2.19792e+09
       0.0849   2.19837e+09
        0.085   2.19881e+09
       0.0851   2.19926e+09
       0.0852    2.1997e+09
       0.0853   2.20015e+09
       0.0854   2.20059e+09
       0.0855   2.20103e+09
       0.0856   2.20147e+09
       0.0857   2.20191e+09
       0.0858   2.20235e+09
       0.0859   2.20279e+09
        0.086   2.20323e+09
       0.0861   2.20367e+09
       0.0862   2.20411e+09
       0.0863   2.20455e+09
       0.0864   2.20498e+09
