# Probe 0 (0.05 0.05 0.005)
#       Probe             0
#        Time
       0.0001       3.95894
       0.0002       16.0353
       0.0003       36.3541
       0.0004       64.9446
       0.0005       101.944
       0.0006       147.353
       0.0007        201.17
       0.0008       263.396
       0.0009       334.032
        0.001       413.076
       0.0011       500.529
       0.0012       596.391
       0.0013       700.662
       0.0014       813.341
       0.0015       934.429
       0.0016       1063.93
       0.0017       1201.83
       0.0018       1348.14
       0.0019       1502.87
        0.002          1666
       0.0021       1837.53
       0.0022       2017.48
       0.0023       2205.83
       0.0024       2402.59
       0.0025       2607.75
       0.0026       2821.32
       0.0027        3043.3
       0.0028       3273.67
       0.0029       3512.46
        0.003       3759.64
       0.0031       4015.23
       0.0032       4279.22
       0.0033       4551.61
       0.0034        4832.4
       0.0035       5121.58
       0.0036       5419.17
       0.0037       5725.14
       0.0038       6039.51
       0.0039       6362.27
        0.004       6693.42
       0.0041       7032.96
       0.0042       7380.88
       0.0043       7737.18
       0.0044       8101.86
       0.0045       8474.92
       0.0046       8856.36
       0.0047       9246.16
       0.0048       9644.33
       0.0049       10050.9
        0.005       10465.8
       0.0051         10889
       0.0052       11320.6
       0.0053       11760.5
       0.0054       12208.8
       0.0055       12665.4
       0.0056       13130.4
       0.0057       13603.7
       0.0058       14085.3
       0.0059       14575.2
        0.006       15073.4
       0.0061       15579.9
       0.0062       16094.7
       0.0063       16617.7
       0.0064       17149.1
       0.0065       17688.7
       0.0066       18236.6
       0.0067       18792.7
       0.0068         19357
       0.0069       19929.6
        0.007       20510.3
       0.0071       21099.3
       0.0072       21696.5
       0.0073       22301.8
       0.0074       22915.3
       0.0075         23537
       0.0076       24166.8
       0.0077       24804.7
       0.0078       25450.7
       0.0079       26104.8
        0.008         26767
       0.0081       27437.2
       0.0082       28115.5
       0.0083       28801.8
       0.0084         29496
       0.0085       30198.3
       0.0086       30908.5
       0.0087       31626.7
       0.0088       32352.7
       0.0089       33086.7
        0.009       33828.5
       0.0091       34578.2
       0.0092       35335.7
       0.0093         36101
       0.0094         36874
       0.0095       37654.8
       0.0096       38443.3
       0.0097       39239.4
       0.0098       40043.2
       0.0099       40854.7
         0.01       41673.7
       0.0101       42500.3
       0.0102       43334.3
       0.0103       44175.9
       0.0104       45024.9
       0.0105       45881.3
       0.0106       46745.1
       0.0107       47616.2
       0.0108       48494.6
       0.0109       49380.3
        0.011       50273.2
       0.0111       51173.2
       0.0112       52080.3
       0.0113       52994.5
       0.0114       53915.8
       0.0115         54844
       0.0116       55779.2
       0.0117       56721.2
       0.0118         57670
       0.0119       58625.7
        0.012         59588
       0.0121         60557
       0.0122       61532.6
       0.0123       62514.8
       0.0124       63503.5
       0.0125       64498.6
       0.0126         65500
       0.0127       66507.8
       0.0128       67521.8
       0.0129         68542
        0.013       69568.3
       0.0131       70600.6
       0.0132       71638.9
       0.0133       72683.1
       0.0134       73733.1
       0.0135       74788.9
       0.0136       75850.4
       0.0137       76917.5
       0.0138       77990.1
       0.0139       79068.1
        0.014       80151.5
       0.0141       81240.2
       0.0142       82334.1
       0.0143       83433.1
       0.0144       84537.2
       0.0145       85646.2
       0.0146         86760
       0.0147       87878.6
       0.0148       89001.9
       0.0149       90129.7
        0.015       91262.1
       0.0151       92398.8
       0.0152       93539.8
       0.0153         94685
       0.0154       95834.3
       0.0155       96987.6
       0.0156       98144.8
       0.0157       99305.8
       0.0158        100470
       0.0159        101639
        0.016        102810
       0.0161        103985
       0.0162        105164
       0.0163        106345
       0.0164        107529
       0.0165        108717
       0.0166        109907
       0.0167        111100
       0.0168        112295
       0.0169        113493
        0.017        114693
       0.0171        115895
       0.0172        117100
       0.0173        118306
       0.0174        119514
       0.0175        120724
       0.0176        121935
       0.0177        123148
       0.0178        124362
       0.0179        125577
        0.018        126794
       0.0181        128011
       0.0182        129229
       0.0183        130448
       0.0184        131667
       0.0185        132887
       0.0186        134106
       0.0187        135326
       0.0188        136546
       0.0189        137766
        0.019        138986
       0.0191        140205
       0.0192        141423
       0.0193        142641
       0.0194        143858
       0.0195        145074
       0.0196        146288
       0.0197        147502
       0.0198        148714
       0.0199        149924
         0.02        151133
       0.0201        152340
       0.0202        153545
       0.0203        154748
       0.0204        155948
       0.0205        157146
       0.0206        158342
       0.0207        159535
       0.0208        160725
       0.0209        161912
        0.021        163096
       0.0211        164277
       0.0212        165454
       0.0213        166628
       0.0214        167799
       0.0215        168965
       0.0216        170128
       0.0217        171286
       0.0218        172440
       0.0219        173590
        0.022        174736
       0.0221        175877
       0.0222        177013
       0.0223        178144
       0.0224        179271
       0.0225        180392
       0.0226        181508
       0.0227        182619
       0.0228        183724
       0.0229        184824
        0.023        185918
       0.0231        187006
       0.0232        188088
       0.0233        189164
       0.0234        190234
       0.0235        191298
       0.0236        192356
       0.0237        193407
       0.0238        194451
       0.0239        195489
        0.024        196519
       0.0241        197543
       0.0242        198560
       0.0243        199570
       0.0244        200573
       0.0245        201569
       0.0246        202557
       0.0247        203538
       0.0248        204511
       0.0249        205477
        0.025        206435
       0.0251        207385
       0.0252        208328
       0.0253        209263
       0.0254        210189
       0.0255        211108
       0.0256        212019
       0.0257        212922
       0.0258        213816
       0.0259        214702
        0.026        215580
       0.0261        216450
       0.0262        217311
       0.0263        218164
       0.0264        219009
       0.0265        219845
       0.0266        220672
       0.0267        221491
       0.0268        222302
       0.0269        223104
        0.027        223897
       0.0271        224681
       0.0272        225457
       0.0273        226225
       0.0274        226983
       0.0275        227733
       0.0276        228474
       0.0277        229207
       0.0278        229931
       0.0279        230646
        0.028        231353
       0.0281        232051
       0.0282        232740
       0.0283        233421
       0.0284        234093
       0.0285        234756
       0.0286        235411
       0.0287        236057
       0.0288        236695
       0.0289        237324
        0.029        237945
       0.0291        238557
       0.0292        239161
       0.0293        239756
       0.0294        240344
       0.0295        240923
       0.0296        241493
       0.0297        242056
       0.0298        242610
       0.0299        243156
         0.03        243695
       0.0301        244225
       0.0302        244747
       0.0303        245261
       0.0304        245768
       0.0305        246267
       0.0306        246758
       0.0307        247241
       0.0308        247717
       0.0309        248186
        0.031        248646
       0.0311        249100
       0.0312        249546
       0.0313        249985
       0.0314        250417
       0.0315        250842
       0.0316        251260
       0.0317        251670
       0.0318        252074
       0.0319        252471
        0.032        252862
       0.0321        253246
       0.0322        253623
       0.0323        253993
       0.0324        254358
       0.0325        254716
       0.0326        255067
       0.0327        255413
       0.0328        255752
       0.0329        256086
        0.033        256413
       0.0331        256735
       0.0332        257051
       0.0333        257361
       0.0334        257666
       0.0335        257965
       0.0336        258259
       0.0337        258547
       0.0338        258830
       0.0339        259108
        0.034        259380
       0.0341        259648
       0.0342        259910
       0.0343        260168
       0.0344        260421
       0.0345        260669
       0.0346        260913
       0.0347        261152
       0.0348        261386
       0.0349        261616
        0.035        261842
       0.0351        262063
       0.0352        262280
       0.0353        262493
       0.0354        262702
       0.0355        262907
       0.0356        263108
       0.0357        263305
       0.0358        263498
       0.0359        263688
        0.036        263874
       0.0361        264056
       0.0362        264235
       0.0363        264411
       0.0364        264583
       0.0365        264751
       0.0366        264917
       0.0367        265079
       0.0368        265238
       0.0369        265394
        0.037        265547
       0.0371        265697
       0.0372        265844
       0.0373        265989
       0.0374        266130
       0.0375        266269
       0.0376        266405
       0.0377        266538
       0.0378        266669
       0.0379        266798
        0.038        266923
       0.0381        267047
       0.0382        267168
       0.0383        267287
       0.0384        267403
       0.0385        267517
       0.0386        267629
       0.0387        267739
       0.0388        267847
       0.0389        267953
        0.039        268056
       0.0391        268158
       0.0392        268258
       0.0393        268356
       0.0394        268452
       0.0395        268546
       0.0396        268638
       0.0397        268729
       0.0398        268818
       0.0399        268905
         0.04        268991
       0.0401        269075
       0.0402        269158
       0.0403        269239
       0.0404        269318
       0.0405        269396
       0.0406        269473
       0.0407        269548
       0.0408        269622
       0.0409        269694
        0.041        269765
       0.0411        269835
       0.0412        269904
       0.0413        269971
       0.0414        270037
       0.0415        270102
       0.0416        270165
       0.0417        270228
       0.0418        270290
       0.0419        270350
        0.042        270409
       0.0421        270467
       0.0422        270525
       0.0423        270581
       0.0424        270636
       0.0425        270690
       0.0426        270744
       0.0427        270796
       0.0428        270848
       0.0429        270898
        0.043        270948
       0.0431        270997
       0.0432        271045
       0.0433        271092
       0.0434        271138
       0.0435        271184
       0.0436        271229
       0.0437        271273
       0.0438        271316
       0.0439        271359
        0.044        271401
       0.0441        271442
       0.0442        271483
       0.0443        271523
       0.0444        271562
       0.0445        271601
       0.0446        271639
       0.0447        271676
       0.0448        271713
       0.0449        271749
        0.045        271785
       0.0451        271820
       0.0452        271855
       0.0453        271889
       0.0454        271922
       0.0455        271955
       0.0456        271987
       0.0457        272019
       0.0458        272051
       0.0459        272082
        0.046        272112
       0.0461        272142
       0.0462        272172
       0.0463        272201
       0.0464        272229
       0.0465        272258
       0.0466        272286
       0.0467        272313
       0.0468        272340
       0.0469        272367
        0.047        272393
       0.0471        272419
       0.0472        272444
       0.0473        272469
       0.0474        272494
       0.0475        272518
       0.0476        272542
       0.0477        272566
       0.0478        272589
       0.0479        272612
        0.048        272635
       0.0481        272657
       0.0482        272680
       0.0483        272701
       0.0484        272723
       0.0485        272744
       0.0486        272765
       0.0487        272785
       0.0488        272806
       0.0489        272826
        0.049        272846
       0.0491        272865
       0.0492        272884
       0.0493        272903
       0.0494        272922
       0.0495        272941
       0.0496        272959
       0.0497        272977
       0.0498        272995
       0.0499        273012
         0.05        273030
       0.0501        273047
       0.0502        273064
       0.0503        273080
       0.0504        273097
       0.0505        273113
       0.0506        273129
       0.0507        273145
       0.0508        273161
       0.0509        273176
        0.051        273191
       0.0511        273206
       0.0512        273221
       0.0513        273236
       0.0514        273251
       0.0515        273265
       0.0516        273279
       0.0517        273293
       0.0518        273307
       0.0519        273321
        0.052        273334
       0.0521        273348
       0.0522        273361
       0.0523        273374
       0.0524        273387
       0.0525        273400
       0.0526        273412
       0.0527        273425
       0.0528        273437
       0.0529        273450
        0.053        273462
       0.0531        273474
       0.0532        273485
       0.0533        273497
       0.0534        273509
       0.0535        273520
       0.0536        273531
       0.0537        273542
       0.0538        273553
       0.0539        273564
        0.054        273575
       0.0541        273586
       0.0542        273596
       0.0543        273607
       0.0544        273617
       0.0545        273628
       0.0546        273638
       0.0547        273648
       0.0548        273658
       0.0549        273667
        0.055        273677
       0.0551        273687
       0.0552        273696
       0.0553        273706
       0.0554        273715
       0.0555        273724
       0.0556        273733
       0.0557        273742
       0.0558        273751
       0.0559        273760
        0.056        273769
       0.0561        273778
       0.0562        273786
       0.0563        273795
       0.0564        273803
       0.0565        273812
       0.0566        273820
       0.0567        273828
       0.0568        273836
       0.0569        273844
        0.057        273852
       0.0571        273860
       0.0572        273868
       0.0573        273876
       0.0574        273884
       0.0575        273891
       0.0576        273899
       0.0577        273906
       0.0578        273913
       0.0579        273921
        0.058        273928
       0.0581        273935
       0.0582        273942
       0.0583        273949
       0.0584        273956
       0.0585        273963
       0.0586        273970
       0.0587        273977
       0.0588        273984
       0.0589        273991
        0.059        273997
       0.0591        274004
       0.0592        274010
       0.0593        274017
       0.0594        274023
       0.0595        274029
       0.0596        274036
       0.0597        274042
       0.0598        274048
       0.0599        274054
         0.06        274060
       0.0601        274066
       0.0602        274072
       0.0603        274078
       0.0604        274084
       0.0605        274090
       0.0606        274096
       0.0607        274102
       0.0608        274107
       0.0609        274113
        0.061        274119
       0.0611        274124
       0.0612        274130
       0.0613        274135
       0.0614        274141
       0.0615        274146
       0.0616        274151
       0.0617        274157
       0.0618        274162
       0.0619        274167
        0.062        274172
       0.0621        274177
       0.0622        274182
       0.0623        274187
       0.0624        274192
       0.0625        274197
       0.0626        274202
       0.0627        274207
       0.0628        274212
       0.0629        274217
        0.063        274222
       0.0631        274227
       0.0632        274231
       0.0633        274236
       0.0634        274241
       0.0635        274245
       0.0636        274250
       0.0637        274254
       0.0638        274259
       0.0639        274263
        0.064        274268
       0.0641        274272
       0.0642        274277
       0.0643        274281
       0.0644        274285
       0.0645        274289
       0.0646        274294
       0.0647        274298
       0.0648        274302
       0.0649        274306
        0.065        274310
       0.0651        274315
       0.0652        274319
       0.0653        274323
       0.0654        274327
       0.0655        274331
       0.0656        274335
       0.0657        274339
       0.0658        274343
       0.0659        274346
        0.066        274350
       0.0661        274354
       0.0662        274358
       0.0663        274362
       0.0664        274365
       0.0665        274369
       0.0666        274373
       0.0667        274377
       0.0668        274380
       0.0669        274384
        0.067        274387
       0.0671        274391
       0.0672        274395
       0.0673        274398
       0.0674        274402
       0.0675        274405
       0.0676        274409
       0.0677        274412
       0.0678        274416
       0.0679        274419
        0.068        274422
       0.0681        274426
       0.0682        274429
       0.0683        274432
       0.0684        274436
       0.0685        274439
       0.0686        274442
       0.0687        274445
       0.0688        274449
       0.0689        274452
        0.069        274455
       0.0691        274458
       0.0692        274461
       0.0693        274464
       0.0694        274468
       0.0695        274471
       0.0696        274474
       0.0697        274477
       0.0698        274480
       0.0699        274483
         0.07        274486
       0.0701        274489
       0.0702        274492
       0.0703        274495
       0.0704        274498
       0.0705        274500
       0.0706        274503
       0.0707        274506
       0.0708        274509
       0.0709        274512
        0.071        274515
       0.0711        274518
       0.0712        274520
       0.0713        274523
       0.0714        274526
       0.0715        274529
       0.0716        274531
       0.0717        274534
       0.0718        274537
       0.0719        274539
        0.072        274542
       0.0721        274545
       0.0722        274547
       0.0723        274550
       0.0724        274553
       0.0725        274555
       0.0726        274558
       0.0727        274560
       0.0728        274563
       0.0729        274565
        0.073        274568
       0.0731        274570
       0.0732        274573
       0.0733        274575
       0.0734        274578
       0.0735        274580
       0.0736        274583
       0.0737        274585
       0.0738        274588
       0.0739        274590
        0.074        274592
       0.0741        274595
       0.0742        274597
       0.0743        274599
       0.0744        274602
       0.0745        274604
       0.0746        274606
       0.0747        274609
       0.0748        274611
       0.0749        274613
        0.075        274616
       0.0751        274618
       0.0752        274620
       0.0753        274622
       0.0754        274625
       0.0755        274627
       0.0756        274629
       0.0757        274631
       0.0758        274633
       0.0759        274635
        0.076        274638
       0.0761        274640
       0.0762        274642
       0.0763        274644
       0.0764        274646
       0.0765        274648
       0.0766        274650
       0.0767        274652
       0.0768        274654
       0.0769        274656
        0.077        274659
       0.0771        274661
       0.0772        274663
       0.0773        274665
       0.0774        274667
       0.0775        274669
       0.0776        274671
       0.0777        274673
       0.0778        274675
       0.0779        274677
        0.078        274679
       0.0781        274680
       0.0782        274682
       0.0783        274684
       0.0784        274686
       0.0785        274688
       0.0786        274690
       0.0787        274692
       0.0788        274694
       0.0789        274696
        0.079        274698
       0.0791        274699
       0.0792        274701
       0.0793        274703
       0.0794        274705
       0.0795        274707
       0.0796        274709
       0.0797        274710
       0.0798        274712
       0.0799        274714
         0.08        274716
       0.0801        274718
       0.0802        274719
       0.0803        274721
       0.0804        274723
       0.0805        274725
       0.0806        274726
       0.0807        274728
       0.0808        274730
       0.0809        274731
        0.081        274733
       0.0811        274735
       0.0812        274736
       0.0813        274738
       0.0814        274740
       0.0815        274742
       0.0816        274743
       0.0817        274745
       0.0818        274746
       0.0819        274748
        0.082        274750
       0.0821        274751
       0.0822        274753
       0.0823        274755
       0.0824        274756
       0.0825        274758
       0.0826        274759
       0.0827        274761
       0.0828        274763
       0.0829        274764
        0.083        274766
       0.0831        274767
       0.0832        274769
       0.0833        274770
       0.0834        274772
       0.0835        274773
       0.0836        274775
       0.0837        274776
       0.0838        274778
       0.0839        274779
        0.084        274781
       0.0841        274782
       0.0842        274784
       0.0843        274785
       0.0844        274787
       0.0845        274788
       0.0846        274790
       0.0847        274791
       0.0848        274793
       0.0849        274794
        0.085        274796
       0.0851        274797
       0.0852        274799
       0.0853        274800
       0.0854        274801
       0.0855        274803
       0.0856        274804
       0.0857        274806
       0.0858        274807
       0.0859        274808
        0.086        274810
       0.0861        274811
       0.0862        274812
       0.0863        274814
       0.0864        274815
