# Probe 0 (0.05 0.05 0.005)
#       Probe             0
#        Time
       0.0001   2.72468e-06
       0.0002   2.23502e-05
       0.0003   7.65849e-05
       0.0004   0.000183309
       0.0005   0.000361336
       0.0006   0.000629102
       0.0007    0.00100504
       0.0008     0.0015076
       0.0009    0.00215521
        0.001    0.00296631
       0.0011    0.00395934
       0.0012    0.00515274
       0.0013    0.00656494
       0.0014    0.00821438
       0.0015     0.0101195
       0.0016     0.0122987
       0.0017     0.0147705
       0.0018     0.0175533
       0.0019     0.0206655
        0.002     0.0241255
       0.0021     0.0279518
       0.0022     0.0321627
       0.0023     0.0367768
       0.0024     0.0418125
       0.0025     0.0472881
       0.0026      0.053222
       0.0027     0.0596327
       0.0028     0.0665386
       0.0029      0.073958
        0.003     0.0819094
       0.0031     0.0904111
       0.0032     0.0994815
       0.0033      0.109139
       0.0034      0.119402
       0.0035      0.130288
       0.0036      0.141817
       0.0037      0.154006
       0.0038      0.166874
       0.0039      0.180439
        0.004      0.194719
       0.0041      0.209732
       0.0042      0.225497
       0.0043      0.242032
       0.0044      0.259355
       0.0045      0.277485
       0.0046      0.296438
       0.0047      0.316234
       0.0048      0.336891
       0.0049      0.358426
        0.005      0.380858
       0.0051      0.404204
       0.0052      0.428483
       0.0053      0.453711
       0.0054      0.479908
       0.0055      0.507091
       0.0056      0.535278
       0.0057      0.564486
       0.0058      0.594733
       0.0059      0.626036
        0.006      0.658413
       0.0061      0.691882
       0.0062      0.726459
       0.0063      0.762163
       0.0064       0.79901
       0.0065      0.837017
       0.0066      0.876202
       0.0067      0.916581
       0.0068      0.958171
       0.0069       1.00099
        0.007       1.04505
       0.0071       1.09038
       0.0072       1.13698
       0.0073       1.18488
       0.0074       1.23408
       0.0075       1.28462
       0.0076       1.33649
       0.0077       1.38973
       0.0078       1.44434
       0.0079       1.50034
        0.008       1.55774
       0.0081       1.61656
       0.0082       1.67682
       0.0083       1.73853
       0.0084        1.8017
       0.0085       1.86636
       0.0086        1.9325
       0.0087       2.00016
       0.0088       2.06934
       0.0089       2.14005
        0.009       2.21232
       0.0091       2.28614
       0.0092       2.36155
       0.0093       2.43854
       0.0094       2.51713
       0.0095       2.59734
       0.0096       2.67918
       0.0097       2.76265
       0.0098       2.84777
       0.0099       2.93456
         0.01       3.02302
       0.0101       3.11316
       0.0102       3.20499
       0.0103       3.29853
       0.0104       3.39378
       0.0105       3.49076
       0.0106       3.58947
       0.0107       3.68992
       0.0108       3.79212
       0.0109       3.89608
        0.011       4.00181
       0.0111       4.10931
       0.0112       4.21859
       0.0113       4.32966
       0.0114       4.44252
       0.0115       4.55719
       0.0116       4.67366
       0.0117       4.79194
       0.0118       4.91203
       0.0119       5.03395
        0.012       5.15768
       0.0121       5.28325
       0.0122       5.41064
       0.0123       5.53987
       0.0124       5.67093
       0.0125       5.80382
       0.0126       5.93855
       0.0127       6.07512
       0.0128       6.21352
       0.0129       6.35376
        0.013       6.49583
       0.0131       6.63974
       0.0132       6.78548
       0.0133       6.93304
       0.0134       7.08243
       0.0135       7.23364
       0.0136       7.38666
       0.0137        7.5415
       0.0138       7.69814
       0.0139       7.85658
        0.014       8.01681
       0.0141       8.17883
       0.0142       8.34262
       0.0143       8.50818
       0.0144        8.6755
       0.0145       8.84457
       0.0146       9.01538
       0.0147       9.18791
       0.0148       9.36215
       0.0149        9.5381
        0.015       9.71574
       0.0151       9.89505
       0.0152        10.076
       0.0153       10.2586
       0.0154       10.4429
       0.0155       10.6287
       0.0156       10.8162
       0.0157       11.0052
       0.0158       11.1958
       0.0159       11.3879
        0.016       11.5816
       0.0161       11.7767
       0.0162       11.9733
       0.0163       12.1714
       0.0164       12.3709
       0.0165       12.5718
       0.0166       12.7741
       0.0167       12.9778
       0.0168       13.1828
       0.0169       13.3891
        0.017       13.5966
       0.0171       13.8055
       0.0172       14.0155
       0.0173       14.2268
       0.0174       14.4392
       0.0175       14.6528
       0.0176       14.8674
       0.0177       15.0832
       0.0178          15.3
       0.0179       15.5177
        0.018       15.7365
       0.0181       15.9562
       0.0182       16.1769
       0.0183       16.3983
       0.0184       16.6207
       0.0185       16.8438
       0.0186       17.0677
       0.0187       17.2923
       0.0188       17.5177
       0.0189       17.7436
        0.019       17.9702
       0.0191       18.1974
       0.0192       18.4251
       0.0193       18.6533
       0.0194       18.8819
       0.0195        19.111
       0.0196       19.3404
       0.0197       19.5702
       0.0198       19.8002
       0.0199       20.0305
         0.02        20.261
       0.0201       20.4917
       0.0202       20.7225
       0.0203       20.9533
       0.0204       21.1842
       0.0205       21.4151
       0.0206       21.6459
       0.0207       21.8766
       0.0208       22.1072
       0.0209       22.3376
        0.021       22.5677
       0.0211       22.7976
       0.0212       23.0272
       0.0213       23.2563
       0.0214       23.4851
       0.0215       23.7134
       0.0216       23.9412
       0.0217       24.1685
       0.0218       24.3951
       0.0219       24.6212
        0.022       24.8465
       0.0221       25.0712
       0.0222        25.295
       0.0223       25.5181
       0.0224       25.7403
       0.0225       25.9616
       0.0226        26.182
       0.0227       26.4014
       0.0228       26.6197
       0.0229        26.837
        0.023       27.0532
       0.0231       27.2683
       0.0232       27.4821
       0.0233       27.6948
       0.0234       27.9061
       0.0235       28.1162
       0.0236       28.3249
       0.0237       28.5323
       0.0238       28.7382
       0.0239       28.9427
        0.024       29.1457
       0.0241       29.3471
       0.0242       29.5471
       0.0243       29.7454
       0.0244       29.9421
       0.0245       30.1371
       0.0246       30.3305
       0.0247       30.5221
       0.0248        30.712
       0.0249       30.9002
        0.025       31.0865
       0.0251        31.271
       0.0252       31.4536
       0.0253       31.6344
       0.0254       31.8132
       0.0255       31.9902
       0.0256       32.1651
       0.0257       32.3381
       0.0258       32.5091
       0.0259       32.6781
        0.026       32.8451
       0.0261         33.01
       0.0262       33.1729
       0.0263       33.3337
       0.0264       33.4923
       0.0265       33.6489
       0.0266       33.8033
       0.0267       33.9556
       0.0268       34.1058
       0.0269       34.2538
        0.027       34.3996
       0.0271       34.5433
       0.0272       34.6848
       0.0273       34.8241
       0.0274       34.9612
       0.0275       35.0962
       0.0276       35.2289
       0.0277       35.3594
       0.0278       35.4877
       0.0279       35.6139
        0.028       35.7378
       0.0281       35.8595
       0.0282       35.9791
       0.0283       36.0964
       0.0284       36.2116
       0.0285       36.3246
       0.0286       36.4354
       0.0287        36.544
       0.0288       36.6505
       0.0289       36.7548
        0.029        36.857
       0.0291        36.957
       0.0292        37.055
       0.0293       37.1508
       0.0294       37.2445
       0.0295       37.3362
       0.0296       37.4258
       0.0297       37.5133
       0.0298       37.5988
       0.0299       37.6822
         0.03       37.7637
       0.0301       37.8431
       0.0302       37.9206
       0.0303       37.9961
       0.0304       38.0697
       0.0305       38.1414
       0.0306       38.2112
       0.0307       38.2791
       0.0308       38.3451
       0.0309       38.4093
        0.031       38.4717
       0.0311       38.5323
       0.0312       38.5911
       0.0313       38.6482
       0.0314       38.7035
       0.0315       38.7572
       0.0316       38.8091
       0.0317       38.8594
       0.0318       38.9081
       0.0319       38.9551
        0.032       39.0006
       0.0321       39.0445
       0.0322       39.0869
       0.0323       39.1277
       0.0324       39.1671
       0.0325       39.2049
       0.0326       39.2414
       0.0327       39.2764
       0.0328         39.31
       0.0329       39.3423
        0.033       39.3732
       0.0331       39.4028
       0.0332       39.4311
       0.0333       39.4581
       0.0334       39.4839
       0.0335       39.5085
       0.0336       39.5318
       0.0337        39.554
       0.0338        39.575
       0.0339       39.5949
        0.034       39.6137
       0.0341       39.6314
       0.0342        39.648
       0.0343       39.6636
       0.0344       39.6782
       0.0345       39.6918
       0.0346       39.7045
       0.0347       39.7161
       0.0348       39.7269
       0.0349       39.7368
        0.035       39.7457
       0.0351       39.7538
       0.0352       39.7611
       0.0353       39.7676
       0.0354       39.7732
       0.0355       39.7781
       0.0356       39.7822
       0.0357       39.7856
       0.0358       39.7882
       0.0359       39.7901
        0.036       39.7914
       0.0361        39.792
       0.0362       39.7919
       0.0363       39.7912
       0.0364       39.7899
       0.0365        39.788
       0.0366       39.7855
       0.0367       39.7825
       0.0368       39.7789
       0.0369       39.7747
        0.037       39.7701
       0.0371        39.765
       0.0372       39.7593
       0.0373       39.7532
       0.0374       39.7466
       0.0375       39.7396
       0.0376       39.7322
       0.0377       39.7243
       0.0378       39.7161
       0.0379       39.7074
        0.038       39.6984
       0.0381        39.689
       0.0382       39.6793
       0.0383       39.6692
       0.0384       39.6587
       0.0385        39.648
       0.0386       39.6369
       0.0387       39.6256
       0.0388        39.614
       0.0389        39.602
        0.039       39.5899
       0.0391       39.5774
       0.0392       39.5647
       0.0393       39.5518
       0.0394       39.5387
       0.0395       39.5253
       0.0396       39.5117
       0.0397       39.4979
       0.0398       39.4839
       0.0399       39.4697
         0.04       39.4554
       0.0401       39.4408
       0.0402       39.4261
       0.0403       39.4113
       0.0404       39.3962
       0.0405       39.3811
       0.0406       39.3658
       0.0407       39.3504
       0.0408       39.3348
       0.0409       39.3191
        0.041       39.3033
       0.0411       39.2874
       0.0412       39.2714
       0.0413       39.2553
       0.0414       39.2391
       0.0415       39.2228
       0.0416       39.2064
       0.0417         39.19
       0.0418       39.1734
       0.0419       39.1568
        0.042       39.1402
       0.0421       39.1235
       0.0422       39.1067
       0.0423       39.0898
       0.0424       39.0729
       0.0425        39.056
       0.0426        39.039
       0.0427        39.022
       0.0428        39.005
       0.0429       38.9879
        0.043       38.9707
       0.0431       38.9536
       0.0432       38.9364
       0.0433       38.9192
       0.0434        38.902
       0.0435       38.8848
       0.0436       38.8676
       0.0437       38.8503
       0.0438       38.8331
       0.0439       38.8158
        0.044       38.7985
       0.0441       38.7813
       0.0442        38.764
       0.0443       38.7467
       0.0444       38.7295
       0.0445       38.7122
       0.0446        38.695
       0.0447       38.6777
       0.0448       38.6605
       0.0449       38.6433
        0.045       38.6261
       0.0451       38.6089
       0.0452       38.5917
       0.0453       38.5746
       0.0454       38.5575
       0.0455       38.5404
       0.0456       38.5233
       0.0457       38.5062
       0.0458       38.4892
       0.0459       38.4722
        0.046       38.4552
       0.0461       38.4382
       0.0462       38.4213
       0.0463       38.4044
       0.0464       38.3875
       0.0465       38.3707
       0.0466       38.3539
       0.0467       38.3371
       0.0468       38.3204
       0.0469       38.3037
        0.047        38.287
       0.0471       38.2704
       0.0472       38.2538
       0.0473       38.2372
       0.0474       38.2207
       0.0475       38.2042
       0.0476       38.1878
       0.0477       38.1714
       0.0478        38.155
       0.0479       38.1387
        0.048       38.1224
       0.0481       38.1062
       0.0482         38.09
       0.0483       38.0738
       0.0484       38.0577
       0.0485       38.0416
       0.0486       38.0256
       0.0487       38.0096
       0.0488       37.9937
       0.0489       37.9778
        0.049       37.9619
       0.0491       37.9461
       0.0492       37.9303
       0.0493       37.9146
       0.0494       37.8989
       0.0495       37.8833
       0.0496       37.8677
       0.0497       37.8521
       0.0498       37.8366
       0.0499       37.8211
         0.05       37.8057
       0.0501       37.7904
       0.0502        37.775
       0.0503       37.7598
       0.0504       37.7445
       0.0505       37.7293
       0.0506       37.7142
       0.0507       37.6991
       0.0508        37.684
       0.0509        37.669
        0.051       37.6541
       0.0511       37.6391
       0.0512       37.6243
       0.0513       37.6094
       0.0514       37.5947
       0.0515       37.5799
       0.0516       37.5652
       0.0517       37.5506
       0.0518        37.536
       0.0519       37.5214
        0.052       37.5069
       0.0521       37.4924
       0.0522        37.478
       0.0523       37.4636
       0.0524       37.4493
       0.0525        37.435
       0.0526       37.4207
       0.0527       37.4065
       0.0528       37.3924
       0.0529       37.3783
        0.053       37.3642
       0.0531       37.3502
       0.0532       37.3362
       0.0533       37.3223
       0.0534       37.3084
       0.0535       37.2945
       0.0536       37.2807
       0.0537       37.2669
       0.0538       37.2532
       0.0539       37.2395
        0.054       37.2259
       0.0541       37.2123
       0.0542       37.1987
       0.0543       37.1852
       0.0544       37.1717
       0.0545       37.1583
       0.0546       37.1449
       0.0547       37.1316
       0.0548       37.1183
       0.0549        37.105
        0.055       37.0918
       0.0551       37.0786
       0.0552       37.0655
       0.0553       37.0524
       0.0554       37.0393
       0.0555       37.0263
       0.0556       37.0133
       0.0557       37.0004
       0.0558       36.9874
       0.0559       36.9746
        0.056       36.9618
       0.0561        36.949
       0.0562       36.9362
       0.0563       36.9235
       0.0564       36.9109
       0.0565       36.8982
       0.0566       36.8856
       0.0567       36.8731
       0.0568       36.8606
       0.0569       36.8481
        0.057       36.8357
       0.0571       36.8233
       0.0572       36.8109
       0.0573       36.7986
       0.0574       36.7863
       0.0575        36.774
       0.0576       36.7618
       0.0577       36.7496
       0.0578       36.7375
       0.0579       36.7254
        0.058       36.7133
       0.0581       36.7013
       0.0582       36.6893
       0.0583       36.6773
       0.0584       36.6654
       0.0585       36.6535
       0.0586       36.6416
       0.0587       36.6298
       0.0588        36.618
       0.0589       36.6062
        0.059       36.5945
       0.0591       36.5828
       0.0592       36.5712
       0.0593       36.5596
       0.0594        36.548
       0.0595       36.5364
       0.0596       36.5249
       0.0597       36.5134
       0.0598        36.502
       0.0599       36.4905
         0.06       36.4791
       0.0601       36.4678
       0.0602       36.4565
       0.0603       36.4452
       0.0604       36.4339
       0.0605       36.4227
       0.0606       36.4115
       0.0607       36.4003
       0.0608       36.3892
       0.0609       36.3781
        0.061        36.367
       0.0611        36.356
       0.0612        36.345
       0.0613        36.334
       0.0614        36.323
       0.0615       36.3121
       0.0616       36.3012
       0.0617       36.2904
       0.0618       36.2795
       0.0619       36.2687
        0.062        36.258
       0.0621       36.2472
       0.0622       36.2365
       0.0623       36.2258
       0.0624       36.2152
       0.0625       36.2046
       0.0626        36.194
       0.0627       36.1834
       0.0628       36.1729
       0.0629       36.1624
        0.063       36.1519
       0.0631       36.1414
       0.0632        36.131
       0.0633       36.1206
       0.0634       36.1102
       0.0635       36.0999
       0.0636       36.0896
       0.0637       36.0793
       0.0638        36.069
       0.0639       36.0588
        0.064       36.0486
       0.0641       36.0384
       0.0642       36.0282
       0.0643       36.0181
       0.0644        36.008
       0.0645       35.9979
       0.0646       35.9879
       0.0647       35.9778
       0.0648       35.9678
       0.0649       35.9579
        0.065       35.9479
       0.0651        35.938
       0.0652       35.9281
       0.0653       35.9182
       0.0654       35.9084
       0.0655       35.8986
       0.0656       35.8888
       0.0657        35.879
       0.0658       35.8692
       0.0659       35.8595
        0.066       35.8498
       0.0661       35.8401
       0.0662       35.8305
       0.0663       35.8209
       0.0664       35.8113
       0.0665       35.8017
       0.0666       35.7921
       0.0667       35.7826
       0.0668       35.7731
       0.0669       35.7636
        0.067       35.7541
       0.0671       35.7447
       0.0672       35.7353
       0.0673       35.7259
       0.0674       35.7165
       0.0675       35.7071
       0.0676       35.6978
       0.0677       35.6885
       0.0678       35.6792
       0.0679         35.67
        0.068       35.6607
       0.0681       35.6515
       0.0682       35.6423
       0.0683       35.6331
       0.0684        35.624
       0.0685       35.6149
       0.0686       35.6058
       0.0687       35.5967
       0.0688       35.5876
       0.0689       35.5786
        0.069       35.5695
       0.0691       35.5605
       0.0692       35.5516
       0.0693       35.5426
       0.0694       35.5336
       0.0695       35.5247
       0.0696       35.5158
       0.0697        35.507
       0.0698       35.4981
       0.0699       35.4893
         0.07       35.4804
       0.0701       35.4716
       0.0702       35.4629
       0.0703       35.4541
       0.0704       35.4454
       0.0705       35.4366
       0.0706       35.4279
       0.0707       35.4193
       0.0708       35.4106
       0.0709        35.402
        0.071       35.3933
       0.0711       35.3847
       0.0712       35.3761
       0.0713       35.3676
       0.0714        35.359
       0.0715       35.3505
       0.0716        35.342
       0.0717       35.3335
       0.0718        35.325
       0.0719       35.3166
        0.072       35.3081
       0.0721       35.2997
       0.0722       35.2913
       0.0723       35.2829
       0.0724       35.2746
       0.0725       35.2662
       0.0726       35.2579
       0.0727       35.2496
       0.0728       35.2413
       0.0729        35.233
        0.073       35.2248
       0.0731       35.2165
       0.0732       35.2083
       0.0733       35.2001
       0.0734       35.1919
       0.0735       35.1838
       0.0736       35.1756
       0.0737       35.1675
       0.0738       35.1594
       0.0739       35.1513
        0.074       35.1432
       0.0741       35.1351
       0.0742       35.1271
       0.0743        35.119
       0.0744        35.111
       0.0745        35.103
       0.0746        35.095
       0.0747        35.087
       0.0748       35.0791
       0.0749       35.0712
        0.075       35.0632
       0.0751       35.0553
       0.0752       35.0474
       0.0753       35.0396
       0.0754       35.0317
       0.0755       35.0239
       0.0756        35.016
       0.0757       35.0082
       0.0758       35.0004
       0.0759       34.9927
        0.076       34.9849
       0.0761       34.9772
       0.0762       34.9694
       0.0763       34.9617
       0.0764        34.954
       0.0765       34.9463
       0.0766       34.9386
       0.0767        34.931
       0.0768       34.9233
       0.0769       34.9157
        0.077       34.9081
       0.0771       34.9005
       0.0772       34.8929
       0.0773       34.8854
       0.0774       34.8778
       0.0775       34.8703
       0.0776       34.8627
       0.0777       34.8552
       0.0778       34.8477
       0.0779       34.8403
        0.078       34.8328
       0.0781       34.8253
       0.0782       34.8179
       0.0783       34.8105
       0.0784       34.8031
       0.0785       34.7957
       0.0786       34.7883
       0.0787       34.7809
       0.0788       34.7736
       0.0789       34.7662
        0.079       34.7589
       0.0791       34.7516
       0.0792       34.7443
       0.0793        34.737
       0.0794       34.7297
       0.0795       34.7225
       0.0796       34.7152
       0.0797        34.708
       0.0798       34.7008
       0.0799       34.6936
         0.08       34.6864
       0.0801       34.6792
       0.0802        34.672
       0.0803       34.6649
       0.0804       34.6577
       0.0805       34.6506
       0.0806       34.6435
       0.0807       34.6364
       0.0808       34.6293
       0.0809       34.6222
        0.081       34.6151
       0.0811       34.6081
       0.0812       34.6011
       0.0813        34.594
       0.0814        34.587
       0.0815         34.58
       0.0816        34.573
       0.0817        34.566
       0.0818       34.5591
       0.0819       34.5521
        0.082       34.5452
       0.0821       34.5383
       0.0822       34.5313
       0.0823       34.5244
       0.0824       34.5176
       0.0825       34.5107
       0.0826       34.5038
       0.0827       34.4969
       0.0828       34.4901
       0.0829       34.4833
        0.083       34.4764
       0.0831       34.4696
       0.0832       34.4628
       0.0833       34.4561
       0.0834       34.4493
       0.0835       34.4425
       0.0836       34.4358
       0.0837        34.429
       0.0838       34.4223
       0.0839       34.4156
        0.084       34.4089
       0.0841       34.4022
       0.0842       34.3955
       0.0843       34.3888
       0.0844       34.3822
       0.0845       34.3755
       0.0846       34.3689
       0.0847       34.3623
       0.0848       34.3556
       0.0849        34.349
        0.085       34.3424
       0.0851       34.3359
       0.0852       34.3293
       0.0853       34.3227
       0.0854       34.3162
       0.0855       34.3096
       0.0856       34.3031
       0.0857       34.2966
       0.0858       34.2901
       0.0859       34.2836
        0.086       34.2771
       0.0861       34.2706
       0.0862       34.2641
       0.0863       34.2577
       0.0864       34.2512
