# Probe 0 (0.05 0.05 0.005)
#       Probe             0
#        Time
       0.0001   0.000724436
       0.0002   0.000724436
       0.0003   0.000724436
       0.0004   0.000724436
       0.0005   0.000724436
       0.0006   0.000724436
       0.0007   0.000724436
       0.0008   0.000724435
       0.0009   0.000724435
        0.001   0.000724434
       0.0011   0.000724433
       0.0012   0.000724432
       0.0013   0.000724431
       0.0014   0.000724429
       0.0015   0.000724427
       0.0016   0.000724424
       0.0017    0.00072442
       0.0018   0.000724416
       0.0019   0.000724411
        0.002   0.000724406
       0.0021   0.000724399
       0.0022   0.000724392
       0.0023   0.000724383
       0.0024   0.000724373
       0.0025   0.000724362
       0.0026   0.000724349
       0.0027   0.000724335
       0.0028   0.000724319
       0.0029   0.000724301
        0.003   0.000724281
       0.0031   0.000724259
       0.0032   0.000724235
       0.0033   0.000724208
       0.0034   0.000724179
       0.0035   0.000724148
       0.0036   0.000724113
       0.0037   0.000724075
       0.0038   0.000724034
       0.0039    0.00072399
        0.004   0.000723942
       0.0041   0.000723891
       0.0042   0.000723835
       0.0043   0.000723776
       0.0044   0.000723712
       0.0045   0.000723644
       0.0046    0.00072357
       0.0047   0.000723492
       0.0048   0.000723409
       0.0049    0.00072332
        0.005   0.000723226
       0.0051   0.000723126
       0.0052    0.00072302
       0.0053   0.000722907
       0.0054   0.000722788
       0.0055   0.000722663
       0.0056    0.00072253
       0.0057   0.000722389
       0.0058   0.000722242
       0.0059   0.000722086
        0.006   0.000721922
       0.0061    0.00072175
       0.0062   0.000721569
       0.0063    0.00072138
       0.0064   0.000721181
       0.0065   0.000720972
       0.0066   0.000720754
       0.0067   0.000720526
       0.0068   0.000720287
       0.0069   0.000720038
        0.007   0.000719777
       0.0071   0.000719506
       0.0072   0.000719222
       0.0073   0.000718927
       0.0074   0.000718619
       0.0075   0.000718299
       0.0076   0.000717966
       0.0077   0.000717619
       0.0078   0.000717259
       0.0079   0.000716885
        0.008   0.000716497
       0.0081   0.000716094
       0.0082   0.000715677
       0.0083   0.000715243
       0.0084   0.000714795
       0.0085    0.00071433
       0.0086   0.000713849
       0.0087   0.000713351
       0.0088   0.000712836
       0.0089   0.000712304
        0.009   0.000711754
       0.0091   0.000711185
       0.0092   0.000710598
       0.0093   0.000709993
       0.0094   0.000709368
       0.0095   0.000708723
       0.0096   0.000708058
       0.0097   0.000707373
       0.0098   0.000706668
       0.0099   0.000705941
         0.01   0.000705193
       0.0101   0.000704422
       0.0102    0.00070363
       0.0103   0.000702815
       0.0104   0.000701977
       0.0105   0.000701116
       0.0106   0.000700231
       0.0107   0.000699322
       0.0108   0.000698388
       0.0109    0.00069743
        0.011   0.000696447
       0.0111   0.000695438
       0.0112   0.000694403
       0.0113   0.000693342
       0.0114   0.000692254
       0.0115    0.00069114
       0.0116   0.000689998
       0.0117   0.000688828
       0.0118   0.000687631
       0.0119   0.000686405
        0.012   0.000685151
       0.0121   0.000683867
       0.0122   0.000682554
       0.0123   0.000681212
       0.0124    0.00067984
       0.0125   0.000678438
       0.0126   0.000677005
       0.0127   0.000675541
       0.0128   0.000674046
       0.0129    0.00067252
        0.013   0.000670962
       0.0131   0.000669372
       0.0132    0.00066775
       0.0133   0.000666095
       0.0134   0.000664408
       0.0135   0.000662687
       0.0136   0.000660934
       0.0137   0.000659147
       0.0138   0.000657326
       0.0139   0.000655472
        0.014   0.000653583
       0.0141   0.000651661
       0.0142   0.000649704
       0.0143   0.000647712
       0.0144   0.000645686
       0.0145   0.000643625
       0.0146   0.000641528
       0.0147   0.000639397
       0.0148   0.000637231
       0.0149   0.000635029
        0.015   0.000632792
       0.0151   0.000630519
       0.0152   0.000628211
       0.0153   0.000625867
       0.0154   0.000623487
       0.0155   0.000621072
       0.0156   0.000618622
       0.0157   0.000616135
       0.0158   0.000613613
       0.0159   0.000611055
        0.016   0.000608462
       0.0161   0.000605834
       0.0162    0.00060317
       0.0163    0.00060047
       0.0164   0.000597736
       0.0165   0.000594966
       0.0166   0.000592161
       0.0167   0.000589322
       0.0168   0.000586448
       0.0169    0.00058354
        0.017   0.000580597
       0.0171   0.000577621
       0.0172    0.00057461
       0.0173   0.000571566
       0.0174   0.000568489
       0.0175   0.000565379
       0.0176   0.000562236
       0.0177   0.000559061
       0.0178   0.000555854
       0.0179   0.000552616
        0.018   0.000549346
       0.0181   0.000546045
       0.0182   0.000542713
       0.0183   0.000539352
       0.0184   0.000535961
       0.0185   0.000532541
       0.0186   0.000529092
       0.0187   0.000525614
       0.0188   0.000522109
       0.0189   0.000518577
        0.019   0.000515018
       0.0191   0.000511433
       0.0192   0.000507823
       0.0193   0.000504187
       0.0194   0.000500527
       0.0195   0.000496843
       0.0196   0.000493136
       0.0197   0.000489406
       0.0198   0.000485655
       0.0199   0.000481882
         0.02   0.000478088
       0.0201   0.000474275
       0.0202   0.000470443
       0.0203   0.000466592
       0.0204   0.000462723
       0.0205   0.000458838
       0.0206   0.000454936
       0.0207   0.000451018
       0.0208   0.000447086
       0.0209    0.00044314
        0.021   0.000439181
       0.0211    0.00043521
       0.0212   0.000431227
       0.0213   0.000427233
       0.0214   0.000423229
       0.0215   0.000419216
       0.0216   0.000415195
       0.0217   0.000411167
       0.0218   0.000407132
       0.0219   0.000403091
        0.022   0.000399046
       0.0221   0.000394996
       0.0222   0.000390943
       0.0223   0.000386888
       0.0224   0.000382832
       0.0225   0.000378775
       0.0226   0.000374719
       0.0227   0.000370663
       0.0228    0.00036661
       0.0229    0.00036256
        0.023   0.000358513
       0.0231   0.000354472
       0.0232   0.000350435
       0.0233   0.000346406
       0.0234   0.000342383
       0.0235   0.000338368
       0.0236   0.000334363
       0.0237   0.000330367
       0.0238   0.000326382
       0.0239   0.000322408
        0.024   0.000318447
       0.0241   0.000314498
       0.0242   0.000310564
       0.0243   0.000306644
       0.0244    0.00030274
       0.0245   0.000298851
       0.0246    0.00029498
       0.0247   0.000291126
       0.0248   0.000287291
       0.0249   0.000283475
        0.025   0.000279679
       0.0251   0.000275904
       0.0252    0.00027215
       0.0253   0.000268417
       0.0254   0.000264708
       0.0255   0.000261021
       0.0256   0.000257359
       0.0257   0.000253721
       0.0258   0.000250108
       0.0259    0.00024652
        0.026   0.000242959
       0.0261   0.000239425
       0.0262   0.000235918
       0.0263   0.000232438
       0.0264   0.000228987
       0.0265   0.000225565
       0.0266   0.000222172
       0.0267   0.000218809
       0.0268   0.000215475
       0.0269   0.000212173
        0.027   0.000208901
       0.0271    0.00020566
       0.0272   0.000202451
       0.0273   0.000199273
       0.0274   0.000196128
       0.0275   0.000193016
       0.0276   0.000189936
       0.0277   0.000186889
       0.0278   0.000183876
       0.0279   0.000180896
        0.028   0.000177949
       0.0281   0.000175037
       0.0282   0.000172158
       0.0283   0.000169314
       0.0284   0.000166504
       0.0285   0.000163728
       0.0286   0.000160987
       0.0287    0.00015828
       0.0288   0.000155608
       0.0289   0.000152971
        0.029   0.000150368
       0.0291     0.0001478
       0.0292   0.000145266
       0.0293   0.000142767
       0.0294   0.000140303
       0.0295   0.000137873
       0.0296   0.000135477
       0.0297   0.000133116
       0.0298    0.00013079
       0.0299   0.000128497
         0.03   0.000126238
       0.0301   0.000124013
       0.0302   0.000121822
       0.0303   0.000119665
       0.0304    0.00011754
       0.0305   0.000115449
       0.0306   0.000113391
       0.0307   0.000111366
       0.0308   0.000109373
       0.0309   0.000107412
        0.031   0.000105484
       0.0311   0.000103587
       0.0312   0.000101722
       0.0313   9.98881e-05
       0.0314   9.80852e-05
       0.0315    9.6313e-05
       0.0316   9.45713e-05
       0.0317   9.28596e-05
       0.0318   9.11777e-05
       0.0319   8.95254e-05
        0.032   8.79022e-05
       0.0321   8.63079e-05
       0.0322   8.47421e-05
       0.0323   8.32046e-05
       0.0324   8.16949e-05
       0.0325   8.02127e-05
       0.0326   7.87577e-05
       0.0327   7.73296e-05
       0.0328   7.59279e-05
       0.0329   7.45524e-05
        0.033   7.32027e-05
       0.0331   7.18784e-05
       0.0332   7.05792e-05
       0.0333   6.93048e-05
       0.0334   6.80547e-05
       0.0335   6.68286e-05
       0.0336   6.56261e-05
       0.0337    6.4447e-05
       0.0338   6.32908e-05
       0.0339   6.21572e-05
        0.034   6.10457e-05
       0.0341   5.99562e-05
       0.0342   5.88882e-05
       0.0343   5.78413e-05
       0.0344   5.68152e-05
       0.0345   5.58096e-05
       0.0346   5.48241e-05
       0.0347   5.38583e-05
       0.0348    5.2912e-05
       0.0349   5.19847e-05
        0.035   5.10762e-05
       0.0351   5.01861e-05
       0.0352    4.9314e-05
       0.0353   4.84597e-05
       0.0354   4.76228e-05
       0.0355    4.6803e-05
       0.0356       4.6e-05
       0.0357   4.52134e-05
       0.0358    4.4443e-05
       0.0359   4.36884e-05
        0.036   4.29493e-05
       0.0361   4.22255e-05
       0.0362   4.15166e-05
       0.0363   4.08223e-05
       0.0364   4.01424e-05
       0.0365   3.94765e-05
       0.0366   3.88244e-05
       0.0367   3.81858e-05
       0.0368   3.75604e-05
       0.0369    3.6948e-05
        0.037   3.63483e-05
       0.0371    3.5761e-05
       0.0372   3.51859e-05
       0.0373   3.46227e-05
       0.0374   3.40712e-05
       0.0375   3.35311e-05
       0.0376   3.30022e-05
       0.0377   3.24842e-05
       0.0378    3.1977e-05
       0.0379   3.14802e-05
        0.038   3.09938e-05
       0.0381   3.05173e-05
       0.0382   3.00508e-05
       0.0383   2.95938e-05
       0.0384   2.91462e-05
       0.0385   2.87079e-05
       0.0386   2.82785e-05
       0.0387    2.7858e-05
       0.0388   2.74461e-05
       0.0389   2.70426e-05
        0.039   2.66474e-05
       0.0391   2.62602e-05
       0.0392    2.5881e-05
       0.0393   2.55094e-05
       0.0394   2.51454e-05
       0.0395   2.47888e-05
       0.0396   2.44394e-05
       0.0397    2.4097e-05
       0.0398   2.37616e-05
       0.0399   2.34329e-05
         0.04   2.31107e-05
       0.0401   2.27951e-05
       0.0402   2.24857e-05
       0.0403   2.21826e-05
       0.0404   2.18854e-05
       0.0405   2.15941e-05
       0.0406   2.13087e-05
       0.0407   2.10288e-05
       0.0408   2.07545e-05
       0.0409   2.04855e-05
        0.041   2.02218e-05
       0.0411   1.99633e-05
       0.0412   1.97098e-05
       0.0413   1.94612e-05
       0.0414   1.92175e-05
       0.0415   1.89784e-05
       0.0416    1.8744e-05
       0.0417    1.8514e-05
       0.0418   1.82885e-05
       0.0419   1.80672e-05
        0.042   1.78502e-05
       0.0421   1.76373e-05
       0.0422   1.74284e-05
       0.0423   1.72234e-05
       0.0424   1.70223e-05
       0.0425   1.68249e-05
       0.0426   1.66313e-05
       0.0427   1.64412e-05
       0.0428   1.62547e-05
       0.0429   1.60715e-05
        0.043   1.58918e-05
       0.0431   1.57154e-05
       0.0432   1.55421e-05
       0.0433   1.53721e-05
       0.0434   1.52051e-05
       0.0435   1.50411e-05
       0.0436   1.48801e-05
       0.0437    1.4722e-05
       0.0438   1.45667e-05
       0.0439   1.44141e-05
        0.044   1.42643e-05
       0.0441   1.41171e-05
       0.0442   1.39725e-05
       0.0443   1.38304e-05
       0.0444   1.36909e-05
       0.0445   1.35537e-05
       0.0446   1.34189e-05
       0.0447   1.32865e-05
       0.0448   1.31563e-05
       0.0449   1.30283e-05
        0.045   1.29026e-05
       0.0451   1.27789e-05
       0.0452   1.26574e-05
       0.0453   1.25379e-05
       0.0454   1.24204e-05
       0.0455   1.23049e-05
       0.0456   1.21913e-05
       0.0457   1.20795e-05
       0.0458   1.19697e-05
       0.0459   1.18616e-05
        0.046   1.17553e-05
       0.0461   1.16507e-05
       0.0462   1.15478e-05
       0.0463   1.14466e-05
       0.0464    1.1347e-05
       0.0465   1.12491e-05
       0.0466   1.11526e-05
       0.0467   1.10577e-05
       0.0468   1.09643e-05
       0.0469   1.08724e-05
        0.047   1.07819e-05
       0.0471   1.06929e-05
       0.0472   1.06052e-05
       0.0473   1.05189e-05
       0.0474   1.04339e-05
       0.0475   1.03502e-05
       0.0476   1.02678e-05
       0.0477   1.01866e-05
       0.0478   1.01067e-05
       0.0479    1.0028e-05
        0.048   9.95047e-06
       0.0481    9.8741e-06
       0.0482   9.79886e-06
       0.0483   9.72474e-06
       0.0484   9.65171e-06
       0.0485   9.57976e-06
       0.0486   9.50886e-06
       0.0487     9.439e-06
       0.0488   9.37014e-06
       0.0489   9.30229e-06
        0.049    9.2354e-06
       0.0491   9.16948e-06
       0.0492    9.1045e-06
       0.0493   9.04044e-06
       0.0494   8.97728e-06
       0.0495   8.91501e-06
       0.0496   8.85362e-06
       0.0497   8.79308e-06
       0.0498   8.73338e-06
       0.0499   8.67451e-06
         0.05   8.61645e-06
       0.0501   8.55918e-06
       0.0502    8.5027e-06
       0.0503   8.44698e-06
       0.0504   8.39202e-06
       0.0505    8.3378e-06
       0.0506    8.2843e-06
       0.0507   8.23152e-06
       0.0508   8.17944e-06
       0.0509   8.12805e-06
        0.051   8.07734e-06
       0.0511   8.02729e-06
       0.0512    7.9779e-06
       0.0513   7.92915e-06
       0.0514   7.88103e-06
       0.0515   7.83353e-06
       0.0516   7.78664e-06
       0.0517   7.74035e-06
       0.0518   7.69465e-06
       0.0519   7.64953e-06
        0.052   7.60498e-06
       0.0521   7.56098e-06
       0.0522   7.51754e-06
       0.0523   7.47464e-06
       0.0524   7.43227e-06
       0.0525   7.39043e-06
       0.0526    7.3491e-06
       0.0527   7.30827e-06
       0.0528   7.26794e-06
       0.0529    7.2281e-06
        0.053   7.18875e-06
       0.0531   7.14987e-06
       0.0532   7.11145e-06
       0.0533   7.07349e-06
       0.0534   7.03598e-06
       0.0535   6.99892e-06
       0.0536   6.96229e-06
       0.0537    6.9261e-06
       0.0538   6.89032e-06
       0.0539   6.85496e-06
        0.054   6.82001e-06
       0.0541   6.78547e-06
       0.0542   6.75132e-06
       0.0543   6.71756e-06
       0.0544   6.68419e-06
       0.0545   6.65119e-06
       0.0546   6.61857e-06
       0.0547   6.58632e-06
       0.0548   6.55442e-06
       0.0549   6.52288e-06
        0.055   6.49169e-06
       0.0551   6.46085e-06
       0.0552   6.43035e-06
       0.0553   6.40018e-06
       0.0554   6.37034e-06
       0.0555   6.34083e-06
       0.0556   6.31163e-06
       0.0557   6.28275e-06
       0.0558   6.25418e-06
       0.0559   6.22592e-06
        0.056   6.19796e-06
       0.0561   6.17029e-06
       0.0562   6.14292e-06
       0.0563   6.11584e-06
       0.0564   6.08904e-06
       0.0565   6.06252e-06
       0.0566   6.03627e-06
       0.0567    6.0103e-06
       0.0568   5.98459e-06
       0.0569   5.95915e-06
        0.057   5.93397e-06
       0.0571   5.90905e-06
       0.0572   5.88438e-06
       0.0573   5.85996e-06
       0.0574   5.83578e-06
       0.0575   5.81185e-06
       0.0576   5.78816e-06
       0.0577    5.7647e-06
       0.0578   5.74148e-06
       0.0579   5.71848e-06
        0.058   5.69571e-06
       0.0581   5.67317e-06
       0.0582   5.65084e-06
       0.0583   5.62873e-06
       0.0584   5.60684e-06
       0.0585   5.58516e-06
       0.0586   5.56368e-06
       0.0587   5.54241e-06
       0.0588   5.52135e-06
       0.0589   5.50048e-06
        0.059   5.47981e-06
       0.0591   5.45934e-06
       0.0592   5.43906e-06
       0.0593   5.41896e-06
       0.0594   5.39906e-06
       0.0595   5.37934e-06
       0.0596    5.3598e-06
       0.0597   5.34044e-06
       0.0598   5.32126e-06
       0.0599   5.30226e-06
         0.06   5.28343e-06
       0.0601   5.26477e-06
       0.0602   5.24627e-06
       0.0603   5.22795e-06
       0.0604   5.20979e-06
       0.0605   5.19179e-06
       0.0606   5.17395e-06
       0.0607   5.15627e-06
       0.0608   5.13875e-06
       0.0609   5.12138e-06
        0.061   5.10416e-06
       0.0611   5.08709e-06
       0.0612   5.07017e-06
       0.0613    5.0534e-06
       0.0614   5.03678e-06
       0.0615   5.02029e-06
       0.0616   5.00395e-06
       0.0617   4.98775e-06
       0.0618   4.97169e-06
       0.0619   4.95576e-06
        0.062   4.93997e-06
       0.0621   4.92431e-06
       0.0622   4.90878e-06
       0.0623   4.89338e-06
       0.0624   4.87811e-06
       0.0625   4.86297e-06
       0.0626   4.84795e-06
       0.0627   4.83306e-06
       0.0628   4.81828e-06
       0.0629   4.80363e-06
        0.063    4.7891e-06
       0.0631   4.77469e-06
       0.0632   4.76039e-06
       0.0633   4.74621e-06
       0.0634   4.73215e-06
       0.0635   4.71819e-06
       0.0636   4.70435e-06
       0.0637   4.69062e-06
       0.0638     4.677e-06
       0.0639   4.66348e-06
        0.064   4.65008e-06
       0.0641   4.63677e-06
       0.0642   4.62357e-06
       0.0643   4.61048e-06
       0.0644   4.59748e-06
       0.0645   4.58459e-06
       0.0646   4.57179e-06
       0.0647    4.5591e-06
       0.0648    4.5465e-06
       0.0649     4.534e-06
        0.065   4.52159e-06
       0.0651   4.50928e-06
       0.0652   4.49706e-06
       0.0653   4.48493e-06
       0.0654    4.4729e-06
       0.0655   4.46095e-06
       0.0656   4.44909e-06
       0.0657   4.43732e-06
       0.0658   4.42564e-06
       0.0659   4.41405e-06
        0.066   4.40254e-06
       0.0661   4.39111e-06
       0.0662   4.37977e-06
       0.0663   4.36851e-06
       0.0664   4.35733e-06
       0.0665   4.34624e-06
       0.0666   4.33522e-06
       0.0667   4.32428e-06
       0.0668   4.31343e-06
       0.0669   4.30264e-06
        0.067   4.29194e-06
       0.0671   4.28131e-06
       0.0672   4.27076e-06
       0.0673   4.26028e-06
       0.0674   4.24988e-06
       0.0675   4.23955e-06
       0.0676   4.22929e-06
       0.0677    4.2191e-06
       0.0678   4.20898e-06
       0.0679   4.19893e-06
        0.068   4.18896e-06
       0.0681   4.17905e-06
       0.0682   4.16921e-06
       0.0683   4.15943e-06
       0.0684   4.14972e-06
       0.0685   4.14008e-06
       0.0686   4.13051e-06
       0.0687     4.121e-06
       0.0688   4.11155e-06
       0.0689   4.10216e-06
        0.069   4.09284e-06
       0.0691   4.08358e-06
       0.0692   4.07439e-06
       0.0693   4.06525e-06
       0.0694   4.05617e-06
       0.0695   4.04716e-06
       0.0696    4.0382e-06
       0.0697    4.0293e-06
       0.0698   4.02046e-06
       0.0699   4.01168e-06
         0.07   4.00295e-06
       0.0701   3.99428e-06
       0.0702   3.98567e-06
       0.0703   3.97711e-06
       0.0704   3.96861e-06
       0.0705   3.96016e-06
       0.0706   3.95176e-06
       0.0707   3.94342e-06
       0.0708   3.93513e-06
       0.0709    3.9269e-06
        0.071   3.91871e-06
       0.0711   3.91058e-06
       0.0712   3.90249e-06
       0.0713   3.89446e-06
       0.0714   3.88648e-06
       0.0715   3.87855e-06
       0.0716   3.87066e-06
       0.0717   3.86283e-06
       0.0718   3.85504e-06
       0.0719    3.8473e-06
        0.072   3.83961e-06
       0.0721   3.83196e-06
       0.0722   3.82436e-06
       0.0723   3.81681e-06
       0.0724   3.80931e-06
       0.0725   3.80184e-06
       0.0726   3.79443e-06
       0.0727   3.78705e-06
       0.0728   3.77973e-06
       0.0729   3.77244e-06
        0.073    3.7652e-06
       0.0731     3.758e-06
       0.0732   3.75084e-06
       0.0733   3.74373e-06
       0.0734   3.73666e-06
       0.0735   3.72963e-06
       0.0736   3.72264e-06
       0.0737   3.71569e-06
       0.0738   3.70878e-06
       0.0739   3.70191e-06
        0.074   3.69508e-06
       0.0741   3.68829e-06
       0.0742   3.68154e-06
       0.0743   3.67483e-06
       0.0744   3.66815e-06
       0.0745   3.66152e-06
       0.0746   3.65492e-06
       0.0747   3.64836e-06
       0.0748   3.64183e-06
       0.0749   3.63535e-06
        0.075   3.62889e-06
       0.0751   3.62248e-06
       0.0752    3.6161e-06
       0.0753   3.60976e-06
       0.0754   3.60345e-06
       0.0755   3.59718e-06
       0.0756   3.59094e-06
       0.0757   3.58473e-06
       0.0758   3.57856e-06
       0.0759   3.57243e-06
        0.076   3.56633e-06
       0.0761   3.56026e-06
       0.0762   3.55422e-06
       0.0763   3.54822e-06
       0.0764   3.54224e-06
       0.0765   3.53631e-06
       0.0766    3.5304e-06
       0.0767   3.52452e-06
       0.0768   3.51868e-06
       0.0769   3.51287e-06
        0.077   3.50708e-06
       0.0771   3.50133e-06
       0.0772   3.49561e-06
       0.0773   3.48992e-06
       0.0774   3.48426e-06
       0.0775   3.47863e-06
       0.0776   3.47303e-06
       0.0777   3.46746e-06
       0.0778   3.46191e-06
       0.0779    3.4564e-06
        0.078   3.45091e-06
       0.0781   3.44546e-06
       0.0782   3.44003e-06
       0.0783   3.43463e-06
       0.0784   3.42925e-06
       0.0785   3.42391e-06
       0.0786   3.41859e-06
       0.0787    3.4133e-06
       0.0788   3.40803e-06
       0.0789   3.40279e-06
        0.079   3.39758e-06
       0.0791    3.3924e-06
       0.0792   3.38724e-06
       0.0793    3.3821e-06
       0.0794     3.377e-06
       0.0795   3.37191e-06
       0.0796   3.36686e-06
       0.0797   3.36183e-06
       0.0798   3.35682e-06
       0.0799   3.35184e-06
         0.08   3.34688e-06
       0.0801   3.34195e-06
       0.0802   3.33704e-06
       0.0803   3.33215e-06
       0.0804   3.32729e-06
       0.0805   3.32245e-06
       0.0806   3.31764e-06
       0.0807   3.31285e-06
       0.0808   3.30808e-06
       0.0809   3.30334e-06
        0.081   3.29862e-06
       0.0811   3.29392e-06
       0.0812   3.28924e-06
       0.0813   3.28459e-06
       0.0814   3.27995e-06
       0.0815   3.27534e-06
       0.0816   3.27076e-06
       0.0817   3.26619e-06
       0.0818   3.26165e-06
       0.0819   3.25712e-06
        0.082   3.25262e-06
       0.0821   3.24814e-06
       0.0822   3.24368e-06
       0.0823   3.23924e-06
       0.0824   3.23482e-06
       0.0825   3.23042e-06
       0.0826   3.22604e-06
       0.0827   3.22169e-06
       0.0828   3.21735e-06
       0.0829   3.21303e-06
        0.083   3.20873e-06
       0.0831   3.20445e-06
       0.0832    3.2002e-06
       0.0833   3.19596e-06
       0.0834   3.19174e-06
       0.0835   3.18754e-06
       0.0836   3.18335e-06
       0.0837   3.17919e-06
       0.0838   3.17505e-06
       0.0839   3.17092e-06
        0.084   3.16681e-06
       0.0841   3.16272e-06
       0.0842   3.15865e-06
       0.0843    3.1546e-06
       0.0844   3.15057e-06
       0.0845   3.14655e-06
       0.0846   3.14255e-06
       0.0847   3.13857e-06
       0.0848   3.13461e-06
       0.0849   3.13066e-06
        0.085   3.12673e-06
       0.0851   3.12282e-06
       0.0852   3.11892e-06
       0.0853   3.11505e-06
       0.0854   3.11118e-06
       0.0855   3.10734e-06
       0.0856   3.10351e-06
       0.0857    3.0997e-06
       0.0858   3.09591e-06
       0.0859   3.09213e-06
        0.086   3.08836e-06
       0.0861   3.08462e-06
       0.0862   3.08089e-06
       0.0863   3.07717e-06
       0.0864   3.07347e-06
