# Probe 0 (0.05 0.05 0.005)
#       Probe             0
#        Time
       0.0001   5.75232e+10
       0.0002   5.75232e+10
       0.0003   5.75232e+10
       0.0004   5.75232e+10
       0.0005   5.75232e+10
       0.0006   5.75232e+10
       0.0007   5.75232e+10
       0.0008   5.75231e+10
       0.0009   5.75231e+10
        0.001   5.75231e+10
       0.0011   5.75231e+10
       0.0012   5.75231e+10
       0.0013   5.75231e+10
       0.0014    5.7523e+10
       0.0015    5.7523e+10
       0.0016   5.75229e+10
       0.0017   5.75229e+10
       0.0018   5.75228e+10
       0.0019   5.75227e+10
        0.002   5.75226e+10
       0.0021   5.75225e+10
       0.0022   5.75223e+10
       0.0023   5.75222e+10
       0.0024    5.7522e+10
       0.0025   5.75218e+10
       0.0026   5.75215e+10
       0.0027   5.75213e+10
       0.0028    5.7521e+10
       0.0029   5.75206e+10
        0.003   5.75203e+10
       0.0031   5.75199e+10
       0.0032   5.75194e+10
       0.0033   5.75189e+10
       0.0034   5.75184e+10
       0.0035   5.75178e+10
       0.0036   5.75171e+10
       0.0037   5.75164e+10
       0.0038   5.75156e+10
       0.0039   5.75148e+10
        0.004   5.75139e+10
       0.0041   5.75129e+10
       0.0042   5.75119e+10
       0.0043   5.75108e+10
       0.0044   5.75096e+10
       0.0045   5.75083e+10
       0.0046   5.75069e+10
       0.0047   5.75054e+10
       0.0048   5.75039e+10
       0.0049   5.75022e+10
        0.005   5.75004e+10
       0.0051   5.74985e+10
       0.0052   5.74965e+10
       0.0053   5.74944e+10
       0.0054   5.74921e+10
       0.0055   5.74897e+10
       0.0056   5.74872e+10
       0.0057   5.74846e+10
       0.0058   5.74818e+10
       0.0059   5.74788e+10
        0.006   5.74757e+10
       0.0061   5.74724e+10
       0.0062    5.7469e+10
       0.0063   5.74654e+10
       0.0064   5.74616e+10
       0.0065   5.74577e+10
       0.0066   5.74535e+10
       0.0067   5.74492e+10
       0.0068   5.74446e+10
       0.0069   5.74399e+10
        0.007   5.74349e+10
       0.0071   5.74297e+10
       0.0072   5.74243e+10
       0.0073   5.74187e+10
       0.0074   5.74128e+10
       0.0075   5.74067e+10
       0.0076   5.74003e+10
       0.0077   5.73937e+10
       0.0078   5.73868e+10
       0.0079   5.73797e+10
        0.008   5.73722e+10
       0.0081   5.73645e+10
       0.0082   5.73565e+10
       0.0083   5.73482e+10
       0.0084   5.73396e+10
       0.0085   5.73307e+10
       0.0086   5.73214e+10
       0.0087   5.73118e+10
       0.0088   5.73019e+10
       0.0089   5.72917e+10
        0.009   5.72811e+10
       0.0091   5.72701e+10
       0.0092   5.72588e+10
       0.0093   5.72471e+10
       0.0094    5.7235e+10
       0.0095   5.72225e+10
       0.0096   5.72096e+10
       0.0097   5.71963e+10
       0.0098   5.71826e+10
       0.0099   5.71685e+10
         0.01    5.7154e+10
       0.0101    5.7139e+10
       0.0102   5.71235e+10
       0.0103   5.71076e+10
       0.0104   5.70912e+10
       0.0105   5.70744e+10
       0.0106   5.70571e+10
       0.0107   5.70392e+10
       0.0108   5.70209e+10
       0.0109   5.70021e+10
        0.011   5.69827e+10
       0.0111   5.69629e+10
       0.0112   5.69424e+10
       0.0113   5.69215e+10
       0.0114   5.68999e+10
       0.0115   5.68778e+10
       0.0116   5.68552e+10
       0.0117   5.68319e+10
       0.0118   5.68081e+10
       0.0119   5.67836e+10
        0.012   5.67586e+10
       0.0121   5.67329e+10
       0.0122   5.67066e+10
       0.0123   5.66796e+10
       0.0124    5.6652e+10
       0.0125   5.66237e+10
       0.0126   5.65948e+10
       0.0127   5.65651e+10
       0.0128   5.65348e+10
       0.0129   5.65038e+10
        0.013   5.64721e+10
       0.0131   5.64396e+10
       0.0132   5.64064e+10
       0.0133   5.63725e+10
       0.0134   5.63378e+10
       0.0135   5.63024e+10
       0.0136   5.62662e+10
       0.0137   5.62292e+10
       0.0138   5.61914e+10
       0.0139   5.61529e+10
        0.014   5.61135e+10
       0.0141   5.60733e+10
       0.0142   5.60322e+10
       0.0143   5.59903e+10
       0.0144   5.59476e+10
       0.0145    5.5904e+10
       0.0146   5.58596e+10
       0.0147   5.58142e+10
       0.0148    5.5768e+10
       0.0149   5.57208e+10
        0.015   5.56728e+10
       0.0151   5.56238e+10
       0.0152   5.55739e+10
       0.0153   5.55231e+10
       0.0154   5.54713e+10
       0.0155   5.54185e+10
       0.0156   5.53648e+10
       0.0157   5.53101e+10
       0.0158   5.52544e+10
       0.0159   5.51977e+10
        0.016     5.514e+10
       0.0161   5.50813e+10
       0.0162   5.50216e+10
       0.0163   5.49608e+10
       0.0164   5.48989e+10
       0.0165   5.48361e+10
       0.0166   5.47721e+10
       0.0167   5.47071e+10
       0.0168    5.4641e+10
       0.0169   5.45738e+10
        0.017   5.45055e+10
       0.0171   5.44361e+10
       0.0172   5.43656e+10
       0.0173   5.42939e+10
       0.0174   5.42211e+10
       0.0175   5.41472e+10
       0.0176   5.40721e+10
       0.0177   5.39959e+10
       0.0178   5.39184e+10
       0.0179   5.38399e+10
        0.018   5.37601e+10
       0.0181   5.36791e+10
       0.0182    5.3597e+10
       0.0183   5.35136e+10
       0.0184    5.3429e+10
       0.0185   5.33432e+10
       0.0186   5.32562e+10
       0.0187    5.3168e+10
       0.0188   5.30785e+10
       0.0189   5.29877e+10
        0.019   5.28957e+10
       0.0191   5.28025e+10
       0.0192    5.2708e+10
       0.0193   5.26122e+10
       0.0194   5.25151e+10
       0.0195   5.24168e+10
       0.0196   5.23172e+10
       0.0197   5.22162e+10
       0.0198    5.2114e+10
       0.0199   5.20105e+10
         0.02   5.19057e+10
       0.0201   5.17996e+10
       0.0202   5.16921e+10
       0.0203   5.15834e+10
       0.0204   5.14733e+10
       0.0205   5.13619e+10
       0.0206   5.12492e+10
       0.0207   5.11352e+10
       0.0208   5.10198e+10
       0.0209   5.09031e+10
        0.021   5.07851e+10
       0.0211   5.06657e+10
       0.0212    5.0545e+10
       0.0213    5.0423e+10
       0.0214   5.02996e+10
       0.0215   5.01749e+10
       0.0216   5.00488e+10
       0.0217   4.99215e+10
       0.0218   4.97927e+10
       0.0219   4.96627e+10
        0.022   4.95313e+10
       0.0221   4.93986e+10
       0.0222   4.92645e+10
       0.0223   4.91291e+10
       0.0224   4.89924e+10
       0.0225   4.88544e+10
       0.0226   4.87151e+10
       0.0227   4.85744e+10
       0.0228   4.84324e+10
       0.0229   4.82891e+10
        0.023   4.81446e+10
       0.0231   4.79987e+10
       0.0232   4.78515e+10
       0.0233    4.7703e+10
       0.0234   4.75533e+10
       0.0235   4.74023e+10
       0.0236     4.725e+10
       0.0237   4.70964e+10
       0.0238   4.69416e+10
       0.0239   4.67855e+10
        0.024   4.66283e+10
       0.0241   4.64697e+10
       0.0242     4.631e+10
       0.0243    4.6149e+10
       0.0244   4.59869e+10
       0.0245   4.58235e+10
       0.0246    4.5659e+10
       0.0247   4.54933e+10
       0.0248   4.53265e+10
       0.0249   4.51585e+10
        0.025   4.49893e+10
       0.0251   4.48191e+10
       0.0252   4.46477e+10
       0.0253   4.44753e+10
       0.0254   4.43017e+10
       0.0255   4.41271e+10
       0.0256   4.39515e+10
       0.0257   4.37748e+10
       0.0258    4.3597e+10
       0.0259   4.34183e+10
        0.026   4.32386e+10
       0.0261   4.30579e+10
       0.0262   4.28762e+10
       0.0263   4.26936e+10
       0.0264   4.25101e+10
       0.0265   4.23257e+10
       0.0266   4.21404e+10
       0.0267   4.19542e+10
       0.0268   4.17672e+10
       0.0269   4.15793e+10
        0.027   4.13906e+10
       0.0271   4.12012e+10
       0.0272   4.10109e+10
       0.0273   4.08199e+10
       0.0274   4.06282e+10
       0.0275   4.04358e+10
       0.0276   4.02427e+10
       0.0277   4.00489e+10
       0.0278   3.98545e+10
       0.0279   3.96594e+10
        0.028   3.94638e+10
       0.0281   3.92676e+10
       0.0282   3.90708e+10
       0.0283   3.88735e+10
       0.0284   3.86757e+10
       0.0285   3.84774e+10
       0.0286   3.82787e+10
       0.0287   3.80795e+10
       0.0288   3.78799e+10
       0.0289     3.768e+10
        0.029   3.74797e+10
       0.0291    3.7279e+10
       0.0292   3.70781e+10
       0.0293   3.68768e+10
       0.0294   3.66753e+10
       0.0295   3.64736e+10
       0.0296   3.62717e+10
       0.0297   3.60695e+10
       0.0298   3.58673e+10
       0.0299   3.56649e+10
         0.03   3.54624e+10
       0.0301   3.52598e+10
       0.0302   3.50572e+10
       0.0303   3.48545e+10
       0.0304   3.46519e+10
       0.0305   3.44493e+10
       0.0306   3.42467e+10
       0.0307   3.40442e+10
       0.0308   3.38418e+10
       0.0309   3.36396e+10
        0.031   3.34375e+10
       0.0311   3.32356e+10
       0.0312   3.30339e+10
       0.0313   3.28325e+10
       0.0314   3.26313e+10
       0.0315   3.24303e+10
       0.0316   3.22297e+10
       0.0317   3.20295e+10
       0.0318   3.18295e+10
       0.0319     3.163e+10
        0.032   3.14309e+10
       0.0321   3.12322e+10
       0.0322    3.1034e+10
       0.0323   3.08362e+10
       0.0324    3.0639e+10
       0.0325   3.04422e+10
       0.0326   3.02461e+10
       0.0327   3.00505e+10
       0.0328   2.98554e+10
       0.0329    2.9661e+10
        0.033   2.94673e+10
       0.0331   2.92742e+10
       0.0332   2.90817e+10
       0.0333     2.889e+10
       0.0334    2.8699e+10
       0.0335   2.85087e+10
       0.0336   2.83192e+10
       0.0337   2.81304e+10
       0.0338   2.79425e+10
       0.0339   2.77553e+10
        0.034    2.7569e+10
       0.0341   2.73835e+10
       0.0342   2.71989e+10
       0.0343   2.70152e+10
       0.0344   2.68323e+10
       0.0345   2.66504e+10
       0.0346   2.64694e+10
       0.0347   2.62893e+10
       0.0348   2.61102e+10
       0.0349    2.5932e+10
        0.035   2.57548e+10
       0.0351   2.55787e+10
       0.0352   2.54035e+10
       0.0353   2.52293e+10
       0.0354   2.50562e+10
       0.0355   2.48841e+10
       0.0356    2.4713e+10
       0.0357    2.4543e+10
       0.0358   2.43741e+10
       0.0359   2.42062e+10
        0.036   2.40395e+10
       0.0361   2.38738e+10
       0.0362   2.37092e+10
       0.0363   2.35457e+10
       0.0364   2.33833e+10
       0.0365   2.32221e+10
       0.0366    2.3062e+10
       0.0367    2.2903e+10
       0.0368   2.27451e+10
       0.0369   2.25884e+10
        0.037   2.24328e+10
       0.0371   2.22784e+10
       0.0372   2.21251e+10
       0.0373    2.1973e+10
       0.0374    2.1822e+10
       0.0375   2.16722e+10
       0.0376   2.15236e+10
       0.0377   2.13761e+10
       0.0378   2.12297e+10
       0.0379   2.10846e+10
        0.038   2.09405e+10
       0.0381   2.07977e+10
       0.0382    2.0656e+10
       0.0383   2.05155e+10
       0.0384   2.03761e+10
       0.0385   2.02379e+10
       0.0386   2.01008e+10
       0.0387   1.99649e+10
       0.0388   1.98301e+10
       0.0389   1.96965e+10
        0.039   1.95641e+10
       0.0391   1.94328e+10
       0.0392   1.93026e+10
       0.0393   1.91735e+10
       0.0394   1.90456e+10
       0.0395   1.89188e+10
       0.0396   1.87931e+10
       0.0397   1.86686e+10
       0.0398   1.85452e+10
       0.0399   1.84228e+10
         0.04   1.83016e+10
       0.0401   1.81815e+10
       0.0402   1.80624e+10
       0.0403   1.79445e+10
       0.0404   1.78276e+10
       0.0405   1.77118e+10
       0.0406   1.75971e+10
       0.0407   1.74834e+10
       0.0408   1.73708e+10
       0.0409   1.72592e+10
        0.041   1.71487e+10
       0.0411   1.70392e+10
       0.0412   1.69308e+10
       0.0413   1.68233e+10
       0.0414   1.67169e+10
       0.0415   1.66115e+10
       0.0416   1.65071e+10
       0.0417   1.64036e+10
       0.0418   1.63012e+10
       0.0419   1.61997e+10
        0.042   1.60992e+10
       0.0421   1.59997e+10
       0.0422   1.59011e+10
       0.0423   1.58034e+10
       0.0424   1.57067e+10
       0.0425    1.5611e+10
       0.0426   1.55161e+10
       0.0427   1.54222e+10
       0.0428   1.53291e+10
       0.0429    1.5237e+10
        0.043   1.51458e+10
       0.0431   1.50554e+10
       0.0432   1.49659e+10
       0.0433   1.48773e+10
       0.0434   1.47895e+10
       0.0435   1.47026e+10
       0.0436   1.46165e+10
       0.0437   1.45313e+10
       0.0438   1.44469e+10
       0.0439   1.43633e+10
        0.044   1.42805e+10
       0.0441   1.41985e+10
       0.0442   1.41173e+10
       0.0443    1.4037e+10
       0.0444   1.39573e+10
       0.0445   1.38785e+10
       0.0446   1.38004e+10
       0.0447   1.37231e+10
       0.0448   1.36465e+10
       0.0449   1.35707e+10
        0.045   1.34955e+10
       0.0451   1.34212e+10
       0.0452   1.33475e+10
       0.0453   1.32745e+10
       0.0454   1.32023e+10
       0.0455   1.31307e+10
       0.0456   1.30599e+10
       0.0457   1.29897e+10
       0.0458   1.29202e+10
       0.0459   1.28513e+10
        0.046   1.27831e+10
       0.0461   1.27156e+10
       0.0462   1.26487e+10
       0.0463   1.25825e+10
       0.0464   1.25168e+10
       0.0465   1.24518e+10
       0.0466   1.23875e+10
       0.0467   1.23237e+10
       0.0468   1.22605e+10
       0.0469    1.2198e+10
        0.047    1.2136e+10
       0.0471   1.20746e+10
       0.0472   1.20138e+10
       0.0473   1.19536e+10
       0.0474   1.18939e+10
       0.0475   1.18348e+10
       0.0476   1.17762e+10
       0.0477   1.17182e+10
       0.0478   1.16607e+10
       0.0479   1.16038e+10
        0.048   1.15473e+10
       0.0481   1.14915e+10
       0.0482   1.14361e+10
       0.0483   1.13812e+10
       0.0484   1.13269e+10
       0.0485    1.1273e+10
       0.0486   1.12196e+10
       0.0487   1.11668e+10
       0.0488   1.11144e+10
       0.0489   1.10625e+10
        0.049    1.1011e+10
       0.0491     1.096e+10
       0.0492   1.09095e+10
       0.0493   1.08595e+10
       0.0494   1.08099e+10
       0.0495   1.07607e+10
       0.0496    1.0712e+10
       0.0497   1.06637e+10
       0.0498   1.06159e+10
       0.0499   1.05684e+10
         0.05   1.05214e+10
       0.0501   1.04748e+10
       0.0502   1.04287e+10
       0.0503   1.03829e+10
       0.0504   1.03376e+10
       0.0505   1.02926e+10
       0.0506    1.0248e+10
       0.0507   1.02038e+10
       0.0508     1.016e+10
       0.0509   1.01166e+10
        0.051   1.00736e+10
       0.0511   1.00309e+10
       0.0512   9.98864e+09
       0.0513   9.94671e+09
       0.0514   9.90514e+09
       0.0515   9.86393e+09
       0.0516   9.82306e+09
       0.0517   9.78255e+09
       0.0518   9.74238e+09
       0.0519   9.70255e+09
        0.052   9.66306e+09
       0.0521   9.62391e+09
       0.0522   9.58508e+09
       0.0523   9.54657e+09
       0.0524   9.50839e+09
       0.0525   9.47053e+09
       0.0526   9.43299e+09
       0.0527   9.39575e+09
       0.0528   9.35882e+09
       0.0529    9.3222e+09
        0.053   9.28588e+09
       0.0531   9.24986e+09
       0.0532   9.21413e+09
       0.0533    9.1787e+09
       0.0534   9.14355e+09
       0.0535   9.10869e+09
       0.0536   9.07411e+09
       0.0537   9.03981e+09
       0.0538   9.00579e+09
       0.0539   8.97204e+09
        0.054   8.93856e+09
       0.0541   8.90535e+09
       0.0542    8.8724e+09
       0.0543   8.83971e+09
       0.0544   8.80729e+09
       0.0545   8.77512e+09
       0.0546    8.7432e+09
       0.0547   8.71153e+09
       0.0548   8.68011e+09
       0.0549   8.64894e+09
        0.055   8.61801e+09
       0.0551   8.58732e+09
       0.0552   8.55687e+09
       0.0553   8.52665e+09
       0.0554   8.49666e+09
       0.0555   8.46691e+09
       0.0556   8.43738e+09
       0.0557   8.40808e+09
       0.0558     8.379e+09
       0.0559   8.35015e+09
        0.056   8.32151e+09
       0.0561   8.29308e+09
       0.0562   8.26488e+09
       0.0563   8.23688e+09
       0.0564   8.20909e+09
       0.0565   8.18151e+09
       0.0566   8.15413e+09
       0.0567   8.12696e+09
       0.0568   8.09999e+09
       0.0569   8.07322e+09
        0.057   8.04664e+09
       0.0571   8.02026e+09
       0.0572   7.99408e+09
       0.0573   7.96808e+09
       0.0574   7.94227e+09
       0.0575   7.91665e+09
       0.0576   7.89122e+09
       0.0577   7.86596e+09
       0.0578   7.84089e+09
       0.0579     7.816e+09
        0.058   7.79129e+09
       0.0581   7.76675e+09
       0.0582   7.74239e+09
       0.0583    7.7182e+09
       0.0584   7.69418e+09
       0.0585   7.67033e+09
       0.0586   7.64665e+09
       0.0587   7.62314e+09
       0.0588   7.59978e+09
       0.0589   7.57659e+09
        0.059   7.55357e+09
       0.0591    7.5307e+09
       0.0592   7.50799e+09
       0.0593   7.48543e+09
       0.0594   7.46303e+09
       0.0595   7.44079e+09
       0.0596   7.41869e+09
       0.0597   7.39675e+09
       0.0598   7.37495e+09
       0.0599   7.35331e+09
         0.06   7.33181e+09
       0.0601   7.31045e+09
       0.0602   7.28924e+09
       0.0603   7.26816e+09
       0.0604   7.24723e+09
       0.0605   7.22644e+09
       0.0606   7.20579e+09
       0.0607   7.18527e+09
       0.0608   7.16489e+09
       0.0609   7.14464e+09
        0.061   7.12453e+09
       0.0611   7.10455e+09
       0.0612   7.08469e+09
       0.0613   7.06497e+09
       0.0614   7.04537e+09
       0.0615   7.02591e+09
       0.0616   7.00656e+09
       0.0617   6.98734e+09
       0.0618   6.96825e+09
       0.0619   6.94927e+09
        0.062   6.93042e+09
       0.0621   6.91169e+09
       0.0622   6.89308e+09
       0.0623   6.87458e+09
       0.0624    6.8562e+09
       0.0625   6.83794e+09
       0.0626   6.81979e+09
       0.0627   6.80175e+09
       0.0628   6.78383e+09
       0.0629   6.76602e+09
        0.063   6.74832e+09
       0.0631   6.73072e+09
       0.0632   6.71324e+09
       0.0633   6.69587e+09
       0.0634    6.6786e+09
       0.0635   6.66143e+09
       0.0636   6.64438e+09
       0.0637   6.62742e+09
       0.0638   6.61057e+09
       0.0639   6.59382e+09
        0.064   6.57717e+09
       0.0641   6.56062e+09
       0.0642   6.54417e+09
       0.0643   6.52782e+09
       0.0644   6.51157e+09
       0.0645   6.49541e+09
       0.0646   6.47935e+09
       0.0647   6.46338e+09
       0.0648   6.44751e+09
       0.0649   6.43174e+09
        0.065   6.41605e+09
       0.0651   6.40046e+09
       0.0652   6.38496e+09
       0.0653   6.36954e+09
       0.0654   6.35422e+09
       0.0655   6.33899e+09
       0.0656   6.32384e+09
       0.0657   6.30878e+09
       0.0658   6.29381e+09
       0.0659   6.27893e+09
        0.066   6.26412e+09
       0.0661   6.24941e+09
       0.0662   6.23478e+09
       0.0663   6.22023e+09
       0.0664   6.20576e+09
       0.0665   6.19137e+09
       0.0666   6.17707e+09
       0.0667   6.16284e+09
       0.0668    6.1487e+09
       0.0669   6.13463e+09
        0.067   6.12064e+09
       0.0671   6.10673e+09
       0.0672    6.0929e+09
       0.0673   6.07914e+09
       0.0674   6.06546e+09
       0.0675   6.05186e+09
       0.0676   6.03833e+09
       0.0677   6.02487e+09
       0.0678   6.01149e+09
       0.0679   5.99818e+09
        0.068   5.98494e+09
       0.0681   5.97177e+09
       0.0682   5.95867e+09
       0.0683   5.94565e+09
       0.0684   5.93269e+09
       0.0685   5.91981e+09
       0.0686   5.90699e+09
       0.0687   5.89424e+09
       0.0688   5.88156e+09
       0.0689   5.86894e+09
        0.069    5.8564e+09
       0.0691   5.84392e+09
       0.0692    5.8315e+09
       0.0693   5.81915e+09
       0.0694   5.80686e+09
       0.0695   5.79464e+09
       0.0696   5.78248e+09
       0.0697   5.77039e+09
       0.0698   5.75836e+09
       0.0699   5.74639e+09
         0.07   5.73448e+09
       0.0701   5.72263e+09
       0.0702   5.71084e+09
       0.0703   5.69912e+09
       0.0704   5.68745e+09
       0.0705   5.67585e+09
       0.0706    5.6643e+09
       0.0707   5.65281e+09
       0.0708   5.64138e+09
       0.0709      5.63e+09
        0.071   5.61869e+09
       0.0711   5.60743e+09
       0.0712   5.59622e+09
       0.0713   5.58507e+09
       0.0714   5.57398e+09
       0.0715   5.56295e+09
       0.0716   5.55196e+09
       0.0717   5.54104e+09
       0.0718   5.53016e+09
       0.0719   5.51934e+09
        0.072   5.50857e+09
       0.0721   5.49786e+09
       0.0722    5.4872e+09
       0.0723   5.47658e+09
       0.0724   5.46603e+09
       0.0725   5.45552e+09
       0.0726   5.44506e+09
       0.0727   5.43465e+09
       0.0728    5.4243e+09
       0.0729   5.41399e+09
        0.073   5.40373e+09
       0.0731   5.39352e+09
       0.0732   5.38336e+09
       0.0733   5.37325e+09
       0.0734   5.36319e+09
       0.0735   5.35317e+09
       0.0736    5.3432e+09
       0.0737   5.33328e+09
       0.0738   5.32341e+09
       0.0739   5.31358e+09
        0.074    5.3038e+09
       0.0741   5.29406e+09
       0.0742   5.28437e+09
       0.0743   5.27472e+09
       0.0744   5.26512e+09
       0.0745   5.25556e+09
       0.0746   5.24605e+09
       0.0747   5.23658e+09
       0.0748   5.22715e+09
       0.0749   5.21777e+09
        0.075   5.20843e+09
       0.0751   5.19913e+09
       0.0752   5.18987e+09
       0.0753   5.18066e+09
       0.0754   5.17149e+09
       0.0755   5.16236e+09
       0.0756   5.15327e+09
       0.0757   5.14422e+09
       0.0758   5.13521e+09
       0.0759   5.12624e+09
        0.076   5.11732e+09
       0.0761   5.10843e+09
       0.0762   5.09958e+09
       0.0763   5.09077e+09
       0.0764     5.082e+09
       0.0765   5.07327e+09
       0.0766   5.06458e+09
       0.0767   5.05592e+09
       0.0768    5.0473e+09
       0.0769   5.03873e+09
        0.077   5.03018e+09
       0.0771   5.02168e+09
       0.0772   5.01321e+09
       0.0773   5.00478e+09
       0.0774   4.99639e+09
       0.0775   4.98803e+09
       0.0776   4.97971e+09
       0.0777   4.97142e+09
       0.0778   4.96317e+09
       0.0779   4.95495e+09
        0.078   4.94677e+09
       0.0781   4.93863e+09
       0.0782   4.93052e+09
       0.0783   4.92244e+09
       0.0784    4.9144e+09
       0.0785   4.90639e+09
       0.0786   4.89842e+09
       0.0787   4.89048e+09
       0.0788   4.88257e+09
       0.0789   4.87469e+09
        0.079   4.86685e+09
       0.0791   4.85904e+09
       0.0792   4.85127e+09
       0.0793   4.84352e+09
       0.0794   4.83581e+09
       0.0795   4.82813e+09
       0.0796   4.82048e+09
       0.0797   4.81286e+09
       0.0798   4.80528e+09
       0.0799   4.79772e+09
         0.08    4.7902e+09
       0.0801    4.7827e+09
       0.0802   4.77524e+09
       0.0803   4.76781e+09
       0.0804   4.76041e+09
       0.0805   4.75303e+09
       0.0806   4.74569e+09
       0.0807   4.73838e+09
       0.0808   4.73109e+09
       0.0809   4.72384e+09
        0.081   4.71661e+09
       0.0811   4.70942e+09
       0.0812   4.70225e+09
       0.0813   4.69511e+09
       0.0814     4.688e+09
       0.0815   4.68092e+09
       0.0816   4.67386e+09
       0.0817   4.66683e+09
       0.0818   4.65983e+09
       0.0819   4.65286e+09
        0.082   4.64592e+09
       0.0821     4.639e+09
       0.0822   4.63211e+09
       0.0823   4.62525e+09
       0.0824   4.61841e+09
       0.0825    4.6116e+09
       0.0826   4.60481e+09
       0.0827   4.59806e+09
       0.0828   4.59132e+09
       0.0829   4.58462e+09
        0.083   4.57794e+09
       0.0831   4.57128e+09
       0.0832   4.56466e+09
       0.0833   4.55805e+09
       0.0834   4.55147e+09
       0.0835   4.54492e+09
       0.0836   4.53839e+09
       0.0837   4.53189e+09
       0.0838   4.52541e+09
       0.0839   4.51895e+09
        0.084   4.51252e+09
       0.0841   4.50611e+09
       0.0842   4.49973e+09
       0.0843   4.49337e+09
       0.0844   4.48704e+09
       0.0845   4.48073e+09
       0.0846   4.47444e+09
       0.0847   4.46817e+09
       0.0848   4.46193e+09
       0.0849   4.45571e+09
        0.085   4.44952e+09
       0.0851   4.44335e+09
       0.0852    4.4372e+09
       0.0853   4.43107e+09
       0.0854   4.42496e+09
       0.0855   4.41888e+09
       0.0856   4.41282e+09
       0.0857   4.40678e+09
       0.0858   4.40077e+09
       0.0859   4.39477e+09
        0.086    4.3888e+09
       0.0861   4.38285e+09
       0.0862   4.37692e+09
       0.0863   4.37101e+09
       0.0864   4.36512e+09
