# Probe 0 (0.05 0.05 0.005)
#       Probe             0
#        Time
       0.0001    0.00381411
       0.0002    0.00381411
       0.0003    0.00381411
       0.0004    0.00381411
       0.0005    0.00381411
       0.0006    0.00381411
       0.0007    0.00381411
       0.0008    0.00381411
       0.0009     0.0038141
        0.001     0.0038141
       0.0011     0.0038141
       0.0012    0.00381409
       0.0013    0.00381408
       0.0014    0.00381407
       0.0015    0.00381406
       0.0016    0.00381405
       0.0017    0.00381403
       0.0018    0.00381401
       0.0019    0.00381398
        0.002    0.00381395
       0.0021    0.00381392
       0.0022    0.00381388
       0.0023    0.00381383
       0.0024    0.00381378
       0.0025    0.00381372
       0.0026    0.00381365
       0.0027    0.00381358
       0.0028    0.00381349
       0.0029     0.0038134
        0.003    0.00381329
       0.0031    0.00381318
       0.0032    0.00381305
       0.0033    0.00381291
       0.0034    0.00381276
       0.0035    0.00381259
       0.0036    0.00381241
       0.0037    0.00381221
       0.0038      0.003812
       0.0039    0.00381176
        0.004    0.00381151
       0.0041    0.00381124
       0.0042    0.00381095
       0.0043    0.00381063
       0.0044     0.0038103
       0.0045    0.00380994
       0.0046    0.00380955
       0.0047    0.00380914
       0.0048     0.0038087
       0.0049    0.00380824
        0.005    0.00380774
       0.0051    0.00380721
       0.0052    0.00380665
       0.0053    0.00380606
       0.0054    0.00380544
       0.0055    0.00380477
       0.0056    0.00380407
       0.0057    0.00380334
       0.0058    0.00380256
       0.0059    0.00380174
        0.006    0.00380088
       0.0061    0.00379997
       0.0062    0.00379902
       0.0063    0.00379802
       0.0064    0.00379697
       0.0065    0.00379587
       0.0066    0.00379473
       0.0067    0.00379352
       0.0068    0.00379227
       0.0069    0.00379095
        0.007    0.00378958
       0.0071    0.00378815
       0.0072    0.00378666
       0.0073     0.0037851
       0.0074    0.00378348
       0.0075     0.0037818
       0.0076    0.00378004
       0.0077    0.00377822
       0.0078    0.00377633
       0.0079    0.00377436
        0.008    0.00377231
       0.0081    0.00377019
       0.0082    0.00376799
       0.0083    0.00376571
       0.0084    0.00376335
       0.0085     0.0037609
       0.0086    0.00375837
       0.0087    0.00375575
       0.0088    0.00375304
       0.0089    0.00375023
        0.009    0.00374734
       0.0091    0.00374435
       0.0092    0.00374126
       0.0093    0.00373807
       0.0094    0.00373478
       0.0095    0.00373138
       0.0096    0.00372788
       0.0097    0.00372428
       0.0098    0.00372056
       0.0099    0.00371673
         0.01    0.00371279
       0.0101    0.00370874
       0.0102    0.00370457
       0.0103    0.00370028
       0.0104    0.00369586
       0.0105    0.00369133
       0.0106    0.00368667
       0.0107    0.00368189
       0.0108    0.00367697
       0.0109    0.00367193
        0.011    0.00366675
       0.0111    0.00366144
       0.0112    0.00365599
       0.0113     0.0036504
       0.0114    0.00364467
       0.0115    0.00363881
       0.0116    0.00363279
       0.0117    0.00362664
       0.0118    0.00362033
       0.0119    0.00361388
        0.012    0.00360727
       0.0121    0.00360052
       0.0122    0.00359361
       0.0123    0.00358654
       0.0124    0.00357931
       0.0125    0.00357193
       0.0126    0.00356439
       0.0127    0.00355668
       0.0128    0.00354881
       0.0129    0.00354077
        0.013    0.00353257
       0.0131     0.0035242
       0.0132    0.00351566
       0.0133    0.00350695
       0.0134    0.00349806
       0.0135    0.00348901
       0.0136    0.00347977
       0.0137    0.00347037
       0.0138    0.00346078
       0.0139    0.00345102
        0.014    0.00344108
       0.0141    0.00343095
       0.0142    0.00342065
       0.0143    0.00341016
       0.0144    0.00339949
       0.0145    0.00338864
       0.0146    0.00337761
       0.0147    0.00336639
       0.0148    0.00335498
       0.0149    0.00334339
        0.015    0.00333161
       0.0151    0.00331964
       0.0152    0.00330749
       0.0153    0.00329515
       0.0154    0.00328262
       0.0155    0.00326991
       0.0156      0.003257
       0.0157    0.00324391
       0.0158    0.00323063
       0.0159    0.00321717
        0.016    0.00320352
       0.0161    0.00318968
       0.0162    0.00317565
       0.0163    0.00316144
       0.0164    0.00314704
       0.0165    0.00313246
       0.0166    0.00311769
       0.0167    0.00310274
       0.0168    0.00308761
       0.0169     0.0030723
        0.017    0.00305681
       0.0171    0.00304114
       0.0172    0.00302529
       0.0173    0.00300926
       0.0174    0.00299306
       0.0175    0.00297669
       0.0176    0.00296014
       0.0177    0.00294342
       0.0178    0.00292654
       0.0179    0.00290949
        0.018    0.00289227
       0.0181    0.00287489
       0.0182    0.00285735
       0.0183    0.00283965
       0.0184     0.0028218
       0.0185    0.00280379
       0.0186    0.00278563
       0.0187    0.00276733
       0.0188    0.00274887
       0.0189    0.00273028
        0.019    0.00271154
       0.0191    0.00269266
       0.0192    0.00267365
       0.0193    0.00265451
       0.0194    0.00263524
       0.0195    0.00261585
       0.0196    0.00259633
       0.0197    0.00257669
       0.0198    0.00255694
       0.0199    0.00253708
         0.02     0.0025171
       0.0201    0.00249703
       0.0202    0.00247685
       0.0203    0.00245658
       0.0204    0.00243621
       0.0205    0.00241575
       0.0206    0.00239521
       0.0207    0.00237458
       0.0208    0.00235388
       0.0209    0.00233311
        0.021    0.00231226
       0.0211    0.00229135
       0.0212    0.00227038
       0.0213    0.00224935
       0.0214    0.00222827
       0.0215    0.00220715
       0.0216    0.00218598
       0.0217    0.00216477
       0.0218    0.00214352
       0.0219    0.00212225
        0.022    0.00210095
       0.0221    0.00207963
       0.0222    0.00205829
       0.0223    0.00203694
       0.0224    0.00201559
       0.0225    0.00199423
       0.0226    0.00197287
       0.0227    0.00195152
       0.0228    0.00193018
       0.0229    0.00190885
        0.023    0.00188755
       0.0231    0.00186627
       0.0232    0.00184502
       0.0233     0.0018238
       0.0234    0.00180262
       0.0235    0.00178149
       0.0236     0.0017604
       0.0237    0.00173936
       0.0238    0.00171838
       0.0239    0.00169746
        0.024     0.0016766
       0.0241    0.00165581
       0.0242     0.0016351
       0.0243    0.00161446
       0.0244     0.0015939
       0.0245    0.00157343
       0.0246    0.00155305
       0.0247    0.00153276
       0.0248    0.00151257
       0.0249    0.00149248
        0.025    0.00147249
       0.0251    0.00145262
       0.0252    0.00143285
       0.0253     0.0014132
       0.0254    0.00139367
       0.0255    0.00137426
       0.0256    0.00135498
       0.0257    0.00133582
       0.0258     0.0013168
       0.0259    0.00129791
        0.026    0.00127916
       0.0261    0.00126056
       0.0262    0.00124209
       0.0263    0.00122377
       0.0264     0.0012056
       0.0265    0.00118759
       0.0266    0.00116972
       0.0267    0.00115201
       0.0268    0.00113446
       0.0269    0.00111707
        0.027    0.00109985
       0.0271    0.00108279
       0.0272    0.00106589
       0.0273    0.00104916
       0.0274     0.0010326
       0.0275    0.00101622
       0.0276         0.001
       0.0277   0.000983959
       0.0278   0.000968093
       0.0279   0.000952404
        0.028   0.000936891
       0.0281   0.000921557
       0.0282   0.000906402
       0.0283   0.000891427
       0.0284   0.000876632
       0.0285   0.000862018
       0.0286   0.000847585
       0.0287   0.000833334
       0.0288   0.000819266
       0.0289    0.00080538
        0.029   0.000791676
       0.0291   0.000778154
       0.0292   0.000764815
       0.0293   0.000751659
       0.0294   0.000738684
       0.0295   0.000725891
       0.0296   0.000713279
       0.0297   0.000700848
       0.0298   0.000688597
       0.0299   0.000676526
         0.03   0.000664635
       0.0301   0.000652921
       0.0302   0.000641385
       0.0303   0.000630025
       0.0304   0.000618841
       0.0305   0.000607832
       0.0306   0.000596996
       0.0307   0.000586332
       0.0308    0.00057584
       0.0309   0.000565518
        0.031   0.000555365
       0.0311   0.000545379
       0.0312   0.000535559
       0.0313   0.000525903
       0.0314   0.000516411
       0.0315   0.000507081
       0.0316    0.00049791
       0.0317   0.000488899
       0.0318   0.000480044
       0.0319   0.000471344
        0.032   0.000462798
       0.0321   0.000454404
       0.0322   0.000446161
       0.0323   0.000438065
       0.0324   0.000430117
       0.0325   0.000422313
       0.0326   0.000414653
       0.0327   0.000407134
       0.0328   0.000399754
       0.0329   0.000392512
        0.033   0.000385406
       0.0331   0.000378434
       0.0332   0.000371594
       0.0333   0.000364884
       0.0334   0.000358302
       0.0335   0.000351847
       0.0336   0.000345516
       0.0337   0.000339308
       0.0338    0.00033322
       0.0339   0.000327252
        0.034     0.0003214
       0.0341   0.000315664
       0.0342   0.000310041
       0.0343   0.000304529
       0.0344   0.000299127
       0.0345   0.000293832
       0.0346   0.000288644
       0.0347   0.000283559
       0.0348   0.000278577
       0.0349   0.000273695
        0.035   0.000268911
       0.0351   0.000264225
       0.0352   0.000259634
       0.0353   0.000255136
       0.0354    0.00025073
       0.0355   0.000246413
       0.0356   0.000242186
       0.0357   0.000238044
       0.0358   0.000233988
       0.0359   0.000230015
        0.036   0.000226124
       0.0361   0.000222313
       0.0362   0.000218581
       0.0363   0.000214925
       0.0364   0.000211345
       0.0365    0.00020784
       0.0366   0.000204406
       0.0367   0.000201044
       0.0368   0.000197752
       0.0369   0.000194527
        0.037    0.00019137
       0.0371   0.000188278
       0.0372    0.00018525
       0.0373   0.000182285
       0.0374   0.000179381
       0.0375   0.000176537
       0.0376   0.000173753
       0.0377   0.000171026
       0.0378   0.000168355
       0.0379    0.00016574
        0.038   0.000163179
       0.0381    0.00016067
       0.0382   0.000158214
       0.0383   0.000155808
       0.0384   0.000153451
       0.0385   0.000151144
       0.0386   0.000148883
       0.0387   0.000146669
       0.0388     0.0001445
       0.0389   0.000142376
        0.039   0.000140295
       0.0391   0.000138257
       0.0392    0.00013626
       0.0393   0.000134304
       0.0394   0.000132387
       0.0395    0.00013051
       0.0396    0.00012867
       0.0397   0.000126868
       0.0398   0.000125101
       0.0399   0.000123371
         0.04   0.000121675
       0.0401   0.000120013
       0.0402   0.000118384
       0.0403   0.000116788
       0.0404   0.000115224
       0.0405    0.00011369
       0.0406   0.000112187
       0.0407   0.000110714
       0.0408   0.000109269
       0.0409   0.000107853
        0.041   0.000106465
       0.0411   0.000105104
       0.0412   0.000103769
       0.0413    0.00010246
       0.0414   0.000101177
       0.0415   9.99185e-05
       0.0416   9.86841e-05
       0.0417   9.74734e-05
       0.0418    9.6286e-05
       0.0419   9.51211e-05
        0.042   9.39784e-05
       0.0421   9.28574e-05
       0.0422   9.17576e-05
       0.0423   9.06785e-05
       0.0424   8.96196e-05
       0.0425   8.85806e-05
       0.0426    8.7561e-05
       0.0427   8.65602e-05
       0.0428   8.55781e-05
       0.0429    8.4614e-05
        0.043   8.36677e-05
       0.0431   8.27388e-05
       0.0432   8.18268e-05
       0.0433   8.09314e-05
       0.0434   8.00522e-05
       0.0435   7.91889e-05
       0.0436   7.83412e-05
       0.0437   7.75086e-05
       0.0438    7.6691e-05
       0.0439   7.58878e-05
        0.044    7.5099e-05
       0.0441    7.4324e-05
       0.0442   7.35627e-05
       0.0443   7.28147e-05
       0.0444   7.20798e-05
       0.0445   7.13577e-05
       0.0446   7.06481e-05
       0.0447   6.99507e-05
       0.0448   6.92653e-05
       0.0449   6.85917e-05
        0.045   6.79295e-05
       0.0451   6.72786e-05
       0.0452   6.66387e-05
       0.0453   6.60096e-05
       0.0454    6.5391e-05
       0.0455   6.47827e-05
       0.0456   6.41846e-05
       0.0457   6.35964e-05
       0.0458   6.30179e-05
       0.0459   6.24489e-05
        0.046   6.18892e-05
       0.0461   6.13386e-05
       0.0462    6.0797e-05
       0.0463   6.02641e-05
       0.0464   5.97398e-05
       0.0465   5.92239e-05
       0.0466   5.87162e-05
       0.0467   5.82166e-05
       0.0468   5.77249e-05
       0.0469    5.7241e-05
        0.047   5.67646e-05
       0.0471   5.62957e-05
       0.0472    5.5834e-05
       0.0473   5.53796e-05
       0.0474   5.49321e-05
       0.0475   5.44915e-05
       0.0476   5.40576e-05
       0.0477   5.36304e-05
       0.0478   5.32096e-05
       0.0479   5.27951e-05
        0.048   5.23869e-05
       0.0481   5.19848e-05
       0.0482   5.15887e-05
       0.0483   5.11985e-05
       0.0484    5.0814e-05
       0.0485   5.04352e-05
       0.0486   5.00619e-05
       0.0487   4.96941e-05
       0.0488   4.93316e-05
       0.0489   4.89743e-05
        0.049   4.86222e-05
       0.0491   4.82751e-05
       0.0492   4.79329e-05
       0.0493   4.75957e-05
       0.0494   4.72631e-05
       0.0495   4.69353e-05
       0.0496   4.66121e-05
       0.0497   4.62933e-05
       0.0498    4.5979e-05
       0.0499   4.56691e-05
         0.05   4.53634e-05
       0.0501   4.50619e-05
       0.0502   4.47645e-05
       0.0503   4.44712e-05
       0.0504   4.41818e-05
       0.0505   4.38963e-05
       0.0506   4.36147e-05
       0.0507   4.33368e-05
       0.0508   4.30626e-05
       0.0509    4.2792e-05
        0.051    4.2525e-05
       0.0511   4.22615e-05
       0.0512   4.20015e-05
       0.0513   4.17448e-05
       0.0514   4.14915e-05
       0.0515   4.12414e-05
       0.0516   4.09945e-05
       0.0517   4.07508e-05
       0.0518   4.05102e-05
       0.0519   4.02726e-05
        0.052   4.00381e-05
       0.0521   3.98064e-05
       0.0522   3.95777e-05
       0.0523   3.93518e-05
       0.0524   3.91288e-05
       0.0525   3.89085e-05
       0.0526   3.86909e-05
       0.0527   3.84759e-05
       0.0528   3.82636e-05
       0.0529   3.80539e-05
        0.053   3.78466e-05
       0.0531   3.76419e-05
       0.0532   3.74397e-05
       0.0533   3.72398e-05
       0.0534   3.70423e-05
       0.0535   3.68472e-05
       0.0536   3.66544e-05
       0.0537   3.64638e-05
       0.0538   3.62754e-05
       0.0539   3.60893e-05
        0.054   3.59053e-05
       0.0541   3.57234e-05
       0.0542   3.55436e-05
       0.0543   3.53659e-05
       0.0544   3.51902e-05
       0.0545   3.50164e-05
       0.0546   3.48447e-05
       0.0547   3.46749e-05
       0.0548   3.45069e-05
       0.0549   3.43409e-05
        0.055   3.41767e-05
       0.0551   3.40143e-05
       0.0552   3.38537e-05
       0.0553   3.36949e-05
       0.0554   3.35378e-05
       0.0555   3.33824e-05
       0.0556   3.32287e-05
       0.0557   3.30766e-05
       0.0558   3.29262e-05
       0.0559   3.27774e-05
        0.056   3.26302e-05
       0.0561   3.24845e-05
       0.0562   3.23404e-05
       0.0563   3.21978e-05
       0.0564   3.20567e-05
       0.0565   3.19171e-05
       0.0566   3.17789e-05
       0.0567   3.16422e-05
       0.0568   3.15068e-05
       0.0569   3.13729e-05
        0.057   3.12403e-05
       0.0571   3.11091e-05
       0.0572   3.09792e-05
       0.0573   3.08506e-05
       0.0574   3.07234e-05
       0.0575   3.05974e-05
       0.0576   3.04726e-05
       0.0577   3.03491e-05
       0.0578   3.02269e-05
       0.0579   3.01058e-05
        0.058   2.99859e-05
       0.0581   2.98672e-05
       0.0582   2.97497e-05
       0.0583   2.96333e-05
       0.0584    2.9518e-05
       0.0585   2.94038e-05
       0.0586   2.92908e-05
       0.0587   2.91788e-05
       0.0588   2.90679e-05
       0.0589    2.8958e-05
        0.059   2.88492e-05
       0.0591   2.87414e-05
       0.0592   2.86346e-05
       0.0593   2.85288e-05
       0.0594    2.8424e-05
       0.0595   2.83202e-05
       0.0596   2.82173e-05
       0.0597   2.81154e-05
       0.0598   2.80144e-05
       0.0599   2.79144e-05
         0.06   2.78152e-05
       0.0601    2.7717e-05
       0.0602   2.76196e-05
       0.0603   2.75231e-05
       0.0604   2.74275e-05
       0.0605   2.73328e-05
       0.0606   2.72388e-05
       0.0607   2.71458e-05
       0.0608   2.70535e-05
       0.0609   2.69621e-05
        0.061   2.68714e-05
       0.0611   2.67815e-05
       0.0612   2.66925e-05
       0.0613   2.66042e-05
       0.0614   2.65166e-05
       0.0615   2.64299e-05
       0.0616   2.63438e-05
       0.0617   2.62585e-05
       0.0618   2.61739e-05
       0.0619   2.60901e-05
        0.062   2.60069e-05
       0.0621   2.59245e-05
       0.0622   2.58427e-05
       0.0623   2.57617e-05
       0.0624   2.56813e-05
       0.0625   2.56015e-05
       0.0626   2.55225e-05
       0.0627   2.54441e-05
       0.0628   2.53663e-05
       0.0629   2.52892e-05
        0.063   2.52127e-05
       0.0631   2.51368e-05
       0.0632   2.50615e-05
       0.0633   2.49868e-05
       0.0634   2.49128e-05
       0.0635   2.48393e-05
       0.0636   2.47665e-05
       0.0637   2.46942e-05
       0.0638   2.46224e-05
       0.0639   2.45513e-05
        0.064   2.44807e-05
       0.0641   2.44106e-05
       0.0642   2.43411e-05
       0.0643   2.42722e-05
       0.0644   2.42038e-05
       0.0645   2.41359e-05
       0.0646   2.40685e-05
       0.0647   2.40017e-05
       0.0648   2.39354e-05
       0.0649   2.38695e-05
        0.065   2.38042e-05
       0.0651   2.37394e-05
       0.0652   2.36751e-05
       0.0653   2.36112e-05
       0.0654   2.35478e-05
       0.0655   2.34849e-05
       0.0656   2.34225e-05
       0.0657   2.33606e-05
       0.0658   2.32991e-05
       0.0659    2.3238e-05
        0.066   2.31774e-05
       0.0661   2.31173e-05
       0.0662   2.30575e-05
       0.0663   2.29983e-05
       0.0664   2.29394e-05
       0.0665    2.2881e-05
       0.0666    2.2823e-05
       0.0667   2.27654e-05
       0.0668   2.27082e-05
       0.0669   2.26515e-05
        0.067   2.25951e-05
       0.0671   2.25392e-05
       0.0672   2.24836e-05
       0.0673   2.24284e-05
       0.0674   2.23737e-05
       0.0675   2.23193e-05
       0.0676   2.22653e-05
       0.0677   2.22116e-05
       0.0678   2.21583e-05
       0.0679   2.21054e-05
        0.068   2.20529e-05
       0.0681   2.20007e-05
       0.0682   2.19489e-05
       0.0683   2.18975e-05
       0.0684   2.18464e-05
       0.0685   2.17956e-05
       0.0686   2.17452e-05
       0.0687   2.16951e-05
       0.0688   2.16454e-05
       0.0689    2.1596e-05
        0.069   2.15469e-05
       0.0691   2.14981e-05
       0.0692   2.14497e-05
       0.0693   2.14016e-05
       0.0694   2.13538e-05
       0.0695   2.13064e-05
       0.0696   2.12592e-05
       0.0697   2.12124e-05
       0.0698   2.11658e-05
       0.0699   2.11196e-05
         0.07   2.10736e-05
       0.0701    2.1028e-05
       0.0702   2.09826e-05
       0.0703   2.09376e-05
       0.0704   2.08928e-05
       0.0705   2.08483e-05
       0.0706   2.08041e-05
       0.0707   2.07602e-05
       0.0708   2.07165e-05
       0.0709   2.06732e-05
        0.071   2.06301e-05
       0.0711   2.05873e-05
       0.0712   2.05447e-05
       0.0713   2.05024e-05
       0.0714   2.04604e-05
       0.0715   2.04186e-05
       0.0716   2.03771e-05
       0.0717   2.03359e-05
       0.0718   2.02949e-05
       0.0719   2.02541e-05
        0.072   2.02136e-05
       0.0721   2.01734e-05
       0.0722   2.01334e-05
       0.0723   2.00936e-05
       0.0724   2.00541e-05
       0.0725   2.00148e-05
       0.0726   1.99757e-05
       0.0727   1.99369e-05
       0.0728   1.98983e-05
       0.0729     1.986e-05
        0.073   1.98219e-05
       0.0731    1.9784e-05
       0.0732   1.97463e-05
       0.0733   1.97088e-05
       0.0734   1.96716e-05
       0.0735   1.96346e-05
       0.0736   1.95978e-05
       0.0737   1.95612e-05
       0.0738   1.95248e-05
       0.0739   1.94886e-05
        0.074   1.94527e-05
       0.0741   1.94169e-05
       0.0742   1.93814e-05
       0.0743   1.93461e-05
       0.0744   1.93109e-05
       0.0745    1.9276e-05
       0.0746   1.92412e-05
       0.0747   1.92067e-05
       0.0748   1.91723e-05
       0.0749   1.91382e-05
        0.075   1.91042e-05
       0.0751   1.90705e-05
       0.0752   1.90369e-05
       0.0753   1.90035e-05
       0.0754   1.89703e-05
       0.0755   1.89372e-05
       0.0756   1.89044e-05
       0.0757   1.88717e-05
       0.0758   1.88392e-05
       0.0759   1.88069e-05
        0.076   1.87748e-05
       0.0761   1.87428e-05
       0.0762   1.87111e-05
       0.0763   1.86795e-05
       0.0764    1.8648e-05
       0.0765   1.86167e-05
       0.0766   1.85856e-05
       0.0767   1.85547e-05
       0.0768   1.85239e-05
       0.0769   1.84933e-05
        0.077   1.84629e-05
       0.0771   1.84326e-05
       0.0772   1.84025e-05
       0.0773   1.83725e-05
       0.0774   1.83427e-05
       0.0775   1.83131e-05
       0.0776   1.82836e-05
       0.0777   1.82543e-05
       0.0778   1.82251e-05
       0.0779   1.81961e-05
        0.078   1.81672e-05
       0.0781   1.81384e-05
       0.0782   1.81099e-05
       0.0783   1.80814e-05
       0.0784   1.80531e-05
       0.0785    1.8025e-05
       0.0786    1.7997e-05
       0.0787   1.79691e-05
       0.0788   1.79414e-05
       0.0789   1.79138e-05
        0.079   1.78864e-05
       0.0791   1.78591e-05
       0.0792   1.78319e-05
       0.0793   1.78049e-05
       0.0794    1.7778e-05
       0.0795   1.77512e-05
       0.0796   1.77246e-05
       0.0797   1.76981e-05
       0.0798   1.76718e-05
       0.0799   1.76455e-05
         0.08   1.76194e-05
       0.0801   1.75935e-05
       0.0802   1.75676e-05
       0.0803   1.75419e-05
       0.0804   1.75163e-05
       0.0805   1.74908e-05
       0.0806   1.74655e-05
       0.0807   1.74403e-05
       0.0808   1.74152e-05
       0.0809   1.73902e-05
        0.081   1.73653e-05
       0.0811   1.73406e-05
       0.0812    1.7316e-05
       0.0813   1.72915e-05
       0.0814   1.72671e-05
       0.0815   1.72428e-05
       0.0816   1.72187e-05
       0.0817   1.71946e-05
       0.0818   1.71707e-05
       0.0819   1.71469e-05
        0.082   1.71232e-05
       0.0821   1.70996e-05
       0.0822   1.70761e-05
       0.0823   1.70527e-05
       0.0824   1.70294e-05
       0.0825   1.70063e-05
       0.0826   1.69832e-05
       0.0827   1.69603e-05
       0.0828   1.69375e-05
       0.0829   1.69147e-05
        0.083   1.68921e-05
       0.0831   1.68696e-05
       0.0832   1.68472e-05
       0.0833   1.68248e-05
       0.0834   1.68026e-05
       0.0835   1.67805e-05
       0.0836   1.67585e-05
       0.0837   1.67366e-05
       0.0838   1.67147e-05
       0.0839    1.6693e-05
        0.084   1.66714e-05
       0.0841   1.66499e-05
       0.0842   1.66284e-05
       0.0843   1.66071e-05
       0.0844   1.65859e-05
       0.0845   1.65647e-05
       0.0846   1.65437e-05
       0.0847   1.65227e-05
       0.0848   1.65018e-05
       0.0849    1.6481e-05
        0.085   1.64604e-05
       0.0851   1.64398e-05
       0.0852   1.64193e-05
       0.0853   1.63988e-05
       0.0854   1.63785e-05
       0.0855   1.63583e-05
       0.0856   1.63381e-05
       0.0857   1.63181e-05
       0.0858   1.62981e-05
       0.0859   1.62782e-05
        0.086   1.62584e-05
       0.0861   1.62386e-05
       0.0862    1.6219e-05
       0.0863   1.61994e-05
       0.0864     1.618e-05
