# Probe 0 (0.05 0.05 0.005)
#       Probe             0
#        Time
       0.0001       1051.11
       0.0002       1051.11
       0.0003       1051.11
       0.0004       1051.11
       0.0005       1051.11
       0.0006       1051.11
       0.0007       1051.11
       0.0008       1051.11
       0.0009       1051.11
        0.001        1051.1
       0.0011        1051.1
       0.0012        1051.1
       0.0013        1051.1
       0.0014        1051.1
       0.0015       1051.09
       0.0016       1051.09
       0.0017       1051.09
       0.0018       1051.08
       0.0019       1051.07
        0.002       1051.07
       0.0021       1051.06
       0.0022       1051.05
       0.0023       1051.03
       0.0024       1051.02
       0.0025          1051
       0.0026       1050.99
       0.0027       1050.96
       0.0028       1050.94
       0.0029       1050.92
        0.003       1050.89
       0.0031       1050.86
       0.0032       1050.82
       0.0033       1050.79
       0.0034       1050.74
       0.0035        1050.7
       0.0036       1050.65
       0.0037        1050.6
       0.0038       1050.54
       0.0039       1050.48
        0.004       1050.41
       0.0041       1050.33
       0.0042       1050.25
       0.0043       1050.17
       0.0044       1050.08
       0.0045       1049.98
       0.0046       1049.88
       0.0047       1049.76
       0.0048       1049.65
       0.0049       1049.52
        0.005       1049.38
       0.0051       1049.24
       0.0052       1049.09
       0.0053       1048.93
       0.0054       1048.76
       0.0055       1048.58
       0.0056       1048.39
       0.0057       1048.19
       0.0058       1047.97
       0.0059       1047.75
        0.006       1047.52
       0.0061       1047.27
       0.0062       1047.01
       0.0063       1046.74
       0.0064       1046.45
       0.0065       1046.16
       0.0066       1045.84
       0.0067       1045.52
       0.0068       1045.17
       0.0069       1044.81
        0.007       1044.44
       0.0071       1044.05
       0.0072       1043.64
       0.0073       1043.22
       0.0074       1042.78
       0.0075       1042.32
       0.0076       1041.84
       0.0077       1041.34
       0.0078       1040.83
       0.0079       1040.29
        0.008       1039.73
       0.0081       1039.15
       0.0082       1038.55
       0.0083       1037.93
       0.0084       1037.28
       0.0085       1036.62
       0.0086       1035.92
       0.0087       1035.21
       0.0088       1034.47
       0.0089        1033.7
        0.009       1032.91
       0.0091       1032.09
       0.0092       1031.25
       0.0093       1030.38
       0.0094       1029.48
       0.0095       1028.55
       0.0096       1027.59
       0.0097       1026.61
       0.0098       1025.59
       0.0099       1024.55
         0.01       1023.47
       0.0101       1022.36
       0.0102       1021.22
       0.0103       1020.05
       0.0104       1018.84
       0.0105        1017.6
       0.0106       1016.33
       0.0107       1015.02
       0.0108       1013.67
       0.0109       1012.29
        0.011       1010.88
       0.0111       1009.42
       0.0112       1007.93
       0.0113        1006.4
       0.0114       1004.84
       0.0115       1003.23
       0.0116       1001.59
       0.0117       999.901
       0.0118       998.175
       0.0119       996.408
        0.012         994.6
       0.0121       992.751
       0.0122       990.858
       0.0123       988.923
       0.0124       986.945
       0.0125       984.923
       0.0126       982.857
       0.0127       980.746
       0.0128       978.591
       0.0129       976.389
        0.013       974.142
       0.0131       971.849
       0.0132       969.509
       0.0133       967.123
       0.0134       964.688
       0.0135       962.206
       0.0136       959.676
       0.0137       957.098
       0.0138       954.471
       0.0139       951.795
        0.014        949.07
       0.0141       946.295
       0.0142        943.47
       0.0143       940.596
       0.0144       937.671
       0.0145       934.695
       0.0146       931.669
       0.0147       928.592
       0.0148       925.464
       0.0149       922.284
        0.015       919.054
       0.0151       915.771
       0.0152       912.438
       0.0153       909.052
       0.0154       905.615
       0.0155       902.127
       0.0156       898.586
       0.0157       894.994
       0.0158        891.35
       0.0159       887.655
        0.016       883.908
       0.0161       880.109
       0.0162       876.259
       0.0163       872.357
       0.0164       868.405
       0.0165       864.401
       0.0166       860.347
       0.0167       856.242
       0.0168       852.087
       0.0169       847.882
        0.017       843.627
       0.0171       839.323
       0.0172       834.969
       0.0173       830.567
       0.0174       826.116
       0.0175       821.617
       0.0176       817.071
       0.0177       812.478
       0.0178       807.838
       0.0179       803.152
        0.018        798.42
       0.0181       793.643
       0.0182       788.822
       0.0183       783.957
       0.0184       779.049
       0.0185       774.098
       0.0186       769.105
       0.0187       764.071
       0.0188       758.996
       0.0189       753.881
        0.019       748.728
       0.0191       743.536
       0.0192       738.307
       0.0193       733.041
       0.0194       727.739
       0.0195       722.403
       0.0196       717.032
       0.0197       711.629
       0.0198       706.193
       0.0199       700.726
         0.02       695.229
       0.0201       689.702
       0.0202       684.148
       0.0203       678.566
       0.0204       672.958
       0.0205       667.325
       0.0206       661.667
       0.0207       655.987
       0.0208       650.286
       0.0209       644.563
        0.021       638.821
       0.0211       633.061
       0.0212       627.283
       0.0213        621.49
       0.0214       615.681
       0.0215       609.859
       0.0216       604.025
       0.0217       598.179
       0.0218       592.323
       0.0219       586.459
        0.022       580.587
       0.0221       574.709
       0.0222       568.826
       0.0223       562.939
       0.0224       557.049
       0.0225       551.158
       0.0226       545.268
       0.0227       539.378
       0.0228       533.491
       0.0229       527.608
        0.023        521.73
       0.0231       515.859
       0.0232       509.995
       0.0233       504.139
       0.0234       498.294
       0.0235        492.46
       0.0236       486.639
       0.0237       480.831
       0.0238       475.039
       0.0239       469.262
        0.024       463.503
       0.0241       457.763
       0.0242       452.042
       0.0243       446.342
       0.0244       440.664
       0.0245       435.009
       0.0246       429.378
       0.0247       423.773
       0.0248       418.194
       0.0249       412.642
        0.025       407.119
       0.0251       401.626
       0.0252       396.163
       0.0253       390.731
       0.0254       385.332
       0.0255       379.967
       0.0256       374.636
       0.0257        369.34
       0.0258        364.08
       0.0259       358.857
        0.026       353.672
       0.0261       348.525
       0.0262       343.418
       0.0263       338.351
       0.0264       333.324
       0.0265        328.34
       0.0266       323.397
       0.0267       318.497
       0.0268       313.641
       0.0269       308.829
        0.027       304.061
       0.0271       299.339
       0.0272       294.662
       0.0273       290.032
       0.0274       285.448
       0.0275       280.911
       0.0276       276.421
       0.0277        271.98
       0.0278       267.586
       0.0279       263.241
        0.028       258.945
       0.0281       254.698
       0.0282       250.501
       0.0283       246.353
       0.0284       242.254
       0.0285       238.206
       0.0286       234.207
       0.0287       230.259
       0.0288        226.36
       0.0289       222.512
        0.029       218.715
       0.0291       214.968
       0.0292       211.271
       0.0293       207.624
       0.0294       204.028
       0.0295       200.481
       0.0296       196.985
       0.0297       193.539
       0.0298       190.143
       0.0299       186.796
         0.03       183.498
       0.0301        180.25
       0.0302       177.051
       0.0303       173.901
       0.0304       170.799
       0.0305       167.746
       0.0306       164.741
       0.0307       161.783
       0.0308       158.872
       0.0309       156.009
        0.031       153.192
       0.0311       150.422
       0.0312       147.697
       0.0313       145.019
       0.0314       142.385
       0.0315       139.796
       0.0316       137.251
       0.0317        134.75
       0.0318       132.293
       0.0319       129.879
        0.032       127.507
       0.0321       125.177
       0.0322       122.889
       0.0323       120.642
       0.0324       118.436
       0.0325        116.27
       0.0326       114.143
       0.0327       112.056
       0.0328       110.007
       0.0329       107.997
        0.033       106.024
       0.0331       104.088
       0.0332       102.189
       0.0333       100.326
       0.0334       98.4982
       0.0335       96.7057
       0.0336       94.9478
       0.0337       93.2238
       0.0338       91.5334
       0.0339       89.8759
        0.034       88.2508
       0.0341       86.6577
       0.0342        85.096
       0.0343       83.5652
       0.0344       82.0648
       0.0345       80.5943
       0.0346       79.1531
       0.0347       77.7409
       0.0348       76.3569
       0.0349       75.0009
        0.035       73.6722
       0.0351       72.3704
       0.0352       71.0951
       0.0353       69.8456
       0.0354       68.6216
       0.0355       67.4226
       0.0356       66.2481
       0.0357       65.0976
       0.0358       63.9708
       0.0359       62.8671
        0.036        61.786
       0.0361       60.7273
       0.0362       59.6903
       0.0363       58.6748
       0.0364       57.6802
       0.0365       56.7062
       0.0366       55.7524
       0.0367       54.8182
       0.0368       53.9035
       0.0369       53.0076
        0.037       52.1304
       0.0371       51.2713
       0.0372         50.43
       0.0373       49.6061
       0.0374       48.7993
       0.0375       48.0093
       0.0376       47.2356
       0.0377       46.4779
       0.0378       45.7359
       0.0379       45.0092
        0.038       44.2975
       0.0381       43.6006
       0.0382        42.918
       0.0383       42.2496
       0.0384       41.5948
       0.0385       40.9536
       0.0386       40.3255
       0.0387       39.7103
       0.0388       39.1078
       0.0389       38.5176
        0.039       37.9394
       0.0391        37.373
       0.0392       36.8182
       0.0393       36.2747
       0.0394       35.7422
       0.0395       35.2205
       0.0396       34.7094
       0.0397       34.2086
       0.0398       33.7179
       0.0399       33.2371
         0.04       32.7659
       0.0401       32.3042
       0.0402       31.8517
       0.0403       31.4082
       0.0404       30.9735
       0.0405       30.5475
       0.0406       30.1299
       0.0407       29.7206
       0.0408       29.3193
       0.0409       28.9259
        0.041       28.5402
       0.0411        28.162
       0.0412       27.7913
       0.0413       27.4277
       0.0414       27.0712
       0.0415       26.7215
       0.0416       26.3786
       0.0417       26.0423
       0.0418       25.7124
       0.0419       25.3888
        0.042       25.0714
       0.0421         24.76
       0.0422       24.4545
       0.0423       24.1547
       0.0424       23.8606
       0.0425        23.572
       0.0426       23.2888
       0.0427       23.0108
       0.0428        22.738
       0.0429       22.4702
        0.043       22.2074
       0.0431       21.9494
       0.0432        21.696
       0.0433       21.4473
       0.0434       21.2032
       0.0435       20.9634
       0.0436       20.7279
       0.0437       20.4967
       0.0438       20.2696
       0.0439       20.0466
        0.044       19.8275
       0.0441       19.6123
       0.0442       19.4008
       0.0443       19.1931
       0.0444        18.989
       0.0445       18.7885
       0.0446       18.5914
       0.0447       18.3978
       0.0448       18.2074
       0.0449       18.0204
        0.045       17.8365
       0.0451       17.6557
       0.0452        17.478
       0.0453       17.3033
       0.0454       17.1316
       0.0455       16.9627
       0.0456       16.7966
       0.0457       16.6333
       0.0458       16.4726
       0.0459       16.3147
        0.046       16.1593
       0.0461       16.0064
       0.0462        15.856
       0.0463        15.708
       0.0464       15.5625
       0.0465       15.4192
       0.0466       15.2783
       0.0467       15.1396
       0.0468       15.0031
       0.0469       14.8687
        0.047       14.7365
       0.0471       14.6063
       0.0472       14.4781
       0.0473        14.352
       0.0474       14.2278
       0.0475       14.1054
       0.0476        13.985
       0.0477       13.8664
       0.0478       13.7496
       0.0479       13.6346
        0.048       13.5212
       0.0481       13.4096
       0.0482       13.2997
       0.0483       13.1914
       0.0484       13.0846
       0.0485       12.9795
       0.0486       12.8759
       0.0487       12.7738
       0.0488       12.6732
       0.0489        12.574
        0.049       12.4763
       0.0491       12.3799
       0.0492        12.285
       0.0493       12.1914
       0.0494       12.0991
       0.0495       12.0081
       0.0496       11.9184
       0.0497       11.8299
       0.0498       11.7427
       0.0499       11.6567
         0.05       11.5719
       0.0501       11.4882
       0.0502       11.4057
       0.0503       11.3243
       0.0504        11.244
       0.0505       11.1647
       0.0506       11.0866
       0.0507       11.0095
       0.0508       10.9334
       0.0509       10.8583
        0.051       10.7842
       0.0511       10.7111
       0.0512       10.6389
       0.0513       10.5677
       0.0514       10.4974
       0.0515        10.428
       0.0516       10.3595
       0.0517       10.2919
       0.0518       10.2252
       0.0519       10.1592
        0.052       10.0942
       0.0521       10.0299
       0.0522       9.96644
       0.0523       9.90377
       0.0524       9.84188
       0.0525       9.78076
       0.0526       9.72039
       0.0527       9.66075
       0.0528       9.60185
       0.0529       9.54366
        0.053       9.48618
       0.0531       9.42938
       0.0532       9.37327
       0.0533       9.31783
       0.0534       9.26305
       0.0535       9.20891
       0.0536       9.15542
       0.0537       9.10255
       0.0538        9.0503
       0.0539       8.99866
        0.054       8.94762
       0.0541       8.89717
       0.0542       8.84729
       0.0543       8.79799
       0.0544       8.74925
       0.0545       8.70107
       0.0546       8.65342
       0.0547       8.60632
       0.0548       8.55974
       0.0549       8.51368
        0.055       8.46814
       0.0551        8.4231
       0.0552       8.37855
       0.0553        8.3345
       0.0554       8.29092
       0.0555       8.24782
       0.0556       8.20519
       0.0557       8.16302
       0.0558        8.1213
       0.0559       8.08003
        0.056        8.0392
       0.0561        7.9988
       0.0562       7.95883
       0.0563       7.91928
       0.0564       7.88015
       0.0565       7.84143
       0.0566       7.80311
       0.0567       7.76518
       0.0568       7.72765
       0.0569        7.6905
        0.057       7.65374
       0.0571       7.61735
       0.0572       7.58133
       0.0573       7.54567
       0.0574       7.51038
       0.0575       7.47543
       0.0576       7.44084
       0.0577       7.40659
       0.0578       7.37269
       0.0579       7.33911
        0.058       7.30587
       0.0581       7.27296
       0.0582       7.24036
       0.0583       7.20808
       0.0584       7.17612
       0.0585       7.14446
       0.0586       7.11311
       0.0587       7.08206
       0.0588       7.05131
       0.0589       7.02084
        0.059       6.99067
       0.0591       6.96078
       0.0592       6.93117
       0.0593       6.90184
       0.0594       6.87278
       0.0595       6.84399
       0.0596       6.81547
       0.0597       6.78721
       0.0598       6.75921
       0.0599       6.73147
         0.06       6.70398
       0.0601       6.67674
       0.0602       6.64975
       0.0603         6.623
       0.0604       6.59649
       0.0605       6.57021
       0.0606       6.54417
       0.0607       6.51836
       0.0608       6.49278
       0.0609       6.46743
        0.061        6.4423
       0.0611       6.41739
       0.0612       6.39269
       0.0613       6.36821
       0.0614       6.34394
       0.0615       6.31988
       0.0616       6.29603
       0.0617       6.27238
       0.0618       6.24894
       0.0619       6.22569
        0.062       6.20264
       0.0621       6.17978
       0.0622       6.15712
       0.0623       6.13464
       0.0624       6.11235
       0.0625       6.09025
       0.0626       6.06833
       0.0627        6.0466
       0.0628       6.02504
       0.0629       6.00365
        0.063       5.98245
       0.0631       5.96141
       0.0632       5.94055
       0.0633       5.91985
       0.0634       5.89932
       0.0635       5.87896
       0.0636       5.85876
       0.0637       5.83871
       0.0638       5.81883
       0.0639       5.79911
        0.064       5.77954
       0.0641       5.76013
       0.0642       5.74086
       0.0643       5.72175
       0.0644       5.70279
       0.0645       5.68397
       0.0646        5.6653
       0.0647       5.64677
       0.0648       5.62838
       0.0649       5.61014
        0.065       5.59203
       0.0651       5.57406
       0.0652       5.55623
       0.0653       5.53853
       0.0654       5.52097
       0.0655       5.50354
       0.0656       5.48623
       0.0657       5.46906
       0.0658       5.45201
       0.0659       5.43509
        0.066       5.41829
       0.0661       5.40162
       0.0662       5.38507
       0.0663       5.36864
       0.0664       5.35233
       0.0665       5.33614
       0.0666       5.32006
       0.0667        5.3041
       0.0668       5.28826
       0.0669       5.27253
        0.067       5.25691
       0.0671        5.2414
       0.0672         5.226
       0.0673       5.21071
       0.0674       5.19553
       0.0675       5.18045
       0.0676       5.16548
       0.0677       5.15062
       0.0678       5.13585
       0.0679       5.12119
        0.068       5.10664
       0.0681       5.09218
       0.0682       5.07782
       0.0683       5.06356
       0.0684       5.04939
       0.0685       5.03532
       0.0686       5.02135
       0.0687       5.00747
       0.0688       4.99369
       0.0689          4.98
        0.069        4.9664
       0.0691       4.95289
       0.0692       4.93947
       0.0693       4.92614
       0.0694       4.91289
       0.0695       4.89974
       0.0696       4.88667
       0.0697       4.87369
       0.0698       4.86079
       0.0699       4.84797
         0.07       4.83524
       0.0701       4.82259
       0.0702       4.81002
       0.0703       4.79754
       0.0704       4.78513
       0.0705        4.7728
       0.0706       4.76056
       0.0707       4.74838
       0.0708       4.73629
       0.0709       4.72427
        0.071       4.71233
       0.0711       4.70046
       0.0712       4.68867
       0.0713       4.67695
       0.0714       4.66531
       0.0715       4.65373
       0.0716       4.64223
       0.0717        4.6308
       0.0718       4.61944
       0.0719       4.60815
        0.072       4.59693
       0.0721       4.58577
       0.0722       4.57469
       0.0723       4.56367
       0.0724       4.55272
       0.0725       4.54183
       0.0726       4.53101
       0.0727       4.52025
       0.0728       4.50956
       0.0729       4.49893
        0.073       4.48837
       0.0731       4.47787
       0.0732       4.46743
       0.0733       4.45705
       0.0734       4.44673
       0.0735       4.43647
       0.0736       4.42628
       0.0737       4.41614
       0.0738       4.40606
       0.0739       4.39604
        0.074       4.38608
       0.0741       4.37617
       0.0742       4.36632
       0.0743       4.35653
       0.0744        4.3468
       0.0745       4.33711
       0.0746       4.32749
       0.0747       4.31792
       0.0748        4.3084
       0.0749       4.29894
        0.075       4.28953
       0.0751       4.28017
       0.0752       4.27086
       0.0753       4.26161
       0.0754       4.25241
       0.0755       4.24326
       0.0756       4.23416
       0.0757       4.22511
       0.0758       4.21611
       0.0759       4.20716
        0.076       4.19825
       0.0761        4.1894
       0.0762       4.18059
       0.0763       4.17184
       0.0764       4.16313
       0.0765       4.15446
       0.0766       4.14585
       0.0767       4.13728
       0.0768       4.12875
       0.0769       4.12027
        0.077       4.11184
       0.0771       4.10345
       0.0772        4.0951
       0.0773        4.0868
       0.0774       4.07855
       0.0775       4.07033
       0.0776       4.06216
       0.0777       4.05403
       0.0778       4.04595
       0.0779       4.03791
        0.078        4.0299
       0.0781       4.02194
       0.0782       4.01402
       0.0783       4.00615
       0.0784       3.99831
       0.0785       3.99051
       0.0786       3.98275
       0.0787       3.97503
       0.0788       3.96735
       0.0789       3.95971
        0.079       3.95211
       0.0791       3.94455
       0.0792       3.93702
       0.0793       3.92954
       0.0794       3.92209
       0.0795       3.91467
       0.0796        3.9073
       0.0797       3.89996
       0.0798       3.89266
       0.0799       3.88539
         0.08       3.87816
       0.0801       3.87096
       0.0802        3.8638
       0.0803       3.85668
       0.0804       3.84959
       0.0805       3.84253
       0.0806       3.83551
       0.0807       3.82852
       0.0808       3.82157
       0.0809       3.81465
        0.081       3.80776
       0.0811       3.80091
       0.0812       3.79409
       0.0813        3.7873
       0.0814       3.78054
       0.0815       3.77382
       0.0816       3.76713
       0.0817       3.76047
       0.0818       3.75384
       0.0819       3.74724
        0.082       3.74068
       0.0821       3.73414
       0.0822       3.72763
       0.0823       3.72116
       0.0824       3.71471
       0.0825        3.7083
       0.0826       3.70191
       0.0827       3.69556
       0.0828       3.68923
       0.0829       3.68294
        0.083       3.67667
       0.0831       3.67043
       0.0832       3.66422
       0.0833       3.65803
       0.0834       3.65188
       0.0835       3.64575
       0.0836       3.63965
       0.0837       3.63358
       0.0838       3.62754
       0.0839       3.62152
        0.084       3.61553
       0.0841       3.60956
       0.0842       3.60363
       0.0843       3.59772
       0.0844       3.59183
       0.0845       3.58598
       0.0846       3.58014
       0.0847       3.57434
       0.0848       3.56856
       0.0849        3.5628
        0.085       3.55707
       0.0851       3.55136
       0.0852       3.54568
       0.0853       3.54003
       0.0854        3.5344
       0.0855       3.52879
       0.0856       3.52321
       0.0857       3.51765
       0.0858       3.51212
       0.0859        3.5066
        0.086       3.50112
       0.0861       3.49565
       0.0862       3.49021
       0.0863        3.4848
       0.0864        3.4794
