# Probe 0 (0.05 0.05 0.005)
#       Probe             0
#        Time
       0.0001      0.039962
       0.0002      0.039962
       0.0003      0.039962
       0.0004      0.039962
       0.0005      0.039962
       0.0006      0.039962
       0.0007     0.0399619
       0.0008     0.0399619
       0.0009     0.0399619
        0.001     0.0399619
       0.0011     0.0399618
       0.0012     0.0399618
       0.0013     0.0399617
       0.0014     0.0399616
       0.0015     0.0399615
       0.0016     0.0399613
       0.0017     0.0399611
       0.0018     0.0399609
       0.0019     0.0399607
        0.002     0.0399604
       0.0021       0.03996
       0.0022     0.0399596
       0.0023     0.0399591
       0.0024     0.0399586
       0.0025      0.039958
       0.0026     0.0399573
       0.0027     0.0399565
       0.0028     0.0399557
       0.0029     0.0399547
        0.003     0.0399537
       0.0031     0.0399525
       0.0032     0.0399512
       0.0033     0.0399497
       0.0034     0.0399482
       0.0035     0.0399465
       0.0036     0.0399446
       0.0037     0.0399425
       0.0038     0.0399403
       0.0039     0.0399379
        0.004     0.0399353
       0.0041     0.0399325
       0.0042     0.0399295
       0.0043     0.0399263
       0.0044     0.0399228
       0.0045     0.0399191
       0.0046     0.0399152
       0.0047     0.0399109
       0.0048     0.0399064
       0.0049     0.0399016
        0.005     0.0398964
       0.0051      0.039891
       0.0052     0.0398852
       0.0053     0.0398791
       0.0054     0.0398726
       0.0055     0.0398658
       0.0056     0.0398586
       0.0057     0.0398509
       0.0058     0.0398429
       0.0059     0.0398344
        0.006     0.0398255
       0.0061     0.0398161
       0.0062     0.0398063
       0.0063     0.0397959
       0.0064     0.0397851
       0.0065     0.0397737
       0.0066     0.0397618
       0.0067     0.0397494
       0.0068     0.0397363
       0.0069     0.0397227
        0.007     0.0397085
       0.0071     0.0396937
       0.0072     0.0396782
       0.0073     0.0396621
       0.0074     0.0396453
       0.0075     0.0396278
       0.0076     0.0396096
       0.0077     0.0395907
       0.0078      0.039571
       0.0079     0.0395506
        0.008     0.0395294
       0.0081     0.0395074
       0.0082     0.0394846
       0.0083     0.0394609
       0.0084     0.0394364
       0.0085      0.039411
       0.0086     0.0393847
       0.0087     0.0393575
       0.0088     0.0393293
       0.0089     0.0393002
        0.009     0.0392701
       0.0091     0.0392391
       0.0092      0.039207
       0.0093     0.0391739
       0.0094     0.0391397
       0.0095     0.0391044
       0.0096     0.0390681
       0.0097     0.0390306
       0.0098      0.038992
       0.0099     0.0389522
         0.01     0.0389112
       0.0101     0.0388691
       0.0102     0.0388257
       0.0103     0.0387811
       0.0104     0.0387353
       0.0105     0.0386881
       0.0106     0.0386397
       0.0107     0.0385899
       0.0108     0.0385388
       0.0109     0.0384863
        0.011     0.0384325
       0.0111     0.0383772
       0.0112     0.0383205
       0.0113     0.0382624
       0.0114     0.0382028
       0.0115     0.0381418
       0.0116     0.0380792
       0.0117     0.0380151
       0.0118     0.0379495
       0.0119     0.0378824
        0.012     0.0378136
       0.0121     0.0377433
       0.0122     0.0376714
       0.0123     0.0375978
       0.0124     0.0375226
       0.0125     0.0374457
       0.0126     0.0373672
       0.0127     0.0372869
       0.0128      0.037205
       0.0129     0.0371213
        0.013     0.0370358
       0.0131     0.0369487
       0.0132     0.0368597
       0.0133      0.036769
       0.0134     0.0366764
       0.0135      0.036582
       0.0136     0.0364859
       0.0137     0.0363878
       0.0138      0.036288
       0.0139     0.0361862
        0.014     0.0360826
       0.0141     0.0359771
       0.0142     0.0358697
       0.0143     0.0357604
       0.0144     0.0356492
       0.0145     0.0355361
       0.0146      0.035421
       0.0147     0.0353041
       0.0148     0.0351851
       0.0149     0.0350643
        0.015     0.0349414
       0.0151     0.0348166
       0.0152     0.0346899
       0.0153     0.0345612
       0.0154     0.0344305
       0.0155     0.0342979
       0.0156     0.0341633
       0.0157     0.0340267
       0.0158     0.0338882
       0.0159     0.0337477
        0.016     0.0336052
       0.0161     0.0334608
       0.0162     0.0333144
       0.0163     0.0331661
       0.0164     0.0330158
       0.0165     0.0328636
       0.0166     0.0327095
       0.0167     0.0325534
       0.0168     0.0323954
       0.0169     0.0322356
        0.017     0.0320738
       0.0171     0.0319101
       0.0172     0.0317446
       0.0173     0.0315773
       0.0174      0.031408
       0.0175      0.031237
       0.0176     0.0310642
       0.0177     0.0308895
       0.0178     0.0307131
       0.0179      0.030535
        0.018     0.0303551
       0.0181     0.0301735
       0.0182     0.0299902
       0.0183     0.0298052
       0.0184     0.0296186
       0.0185     0.0294304
       0.0186     0.0292405
       0.0187     0.0290491
       0.0188     0.0288562
       0.0189     0.0286618
        0.019     0.0284658
       0.0191     0.0282684
       0.0192     0.0280696
       0.0193     0.0278694
       0.0194     0.0276679
       0.0195      0.027465
       0.0196     0.0272608
       0.0197     0.0270554
       0.0198     0.0268487
       0.0199     0.0266408
         0.02     0.0264318
       0.0201     0.0262217
       0.0202     0.0260105
       0.0203     0.0257983
       0.0204     0.0255851
       0.0205      0.025371
       0.0206     0.0251559
       0.0207     0.0249399
       0.0208     0.0247232
       0.0209     0.0245056
        0.021     0.0242873
       0.0211     0.0240683
       0.0212     0.0238486
       0.0213     0.0236284
       0.0214     0.0234075
       0.0215     0.0231862
       0.0216     0.0229644
       0.0217     0.0227421
       0.0218     0.0225195
       0.0219     0.0222965
        0.022     0.0220733
       0.0221     0.0218498
       0.0222     0.0216261
       0.0223     0.0214023
       0.0224     0.0211784
       0.0225     0.0209544
       0.0226     0.0207305
       0.0227     0.0205066
       0.0228     0.0202828
       0.0229     0.0200591
        0.023     0.0198356
       0.0231     0.0196124
       0.0232     0.0193894
       0.0233     0.0191668
       0.0234     0.0189446
       0.0235     0.0187228
       0.0236     0.0185015
       0.0237     0.0182807
       0.0238     0.0180605
       0.0239     0.0178408
        0.024     0.0176219
       0.0241     0.0174036
       0.0242     0.0171861
       0.0243     0.0169694
       0.0244     0.0167536
       0.0245     0.0165386
       0.0246     0.0163245
       0.0247     0.0161114
       0.0248     0.0158993
       0.0249     0.0156882
        0.025     0.0154782
       0.0251     0.0152694
       0.0252     0.0150617
       0.0253     0.0148552
       0.0254     0.0146499
       0.0255     0.0144459
       0.0256     0.0142432
       0.0257     0.0140419
       0.0258     0.0138419
       0.0259     0.0136433
        0.026     0.0134462
       0.0261     0.0132505
       0.0262     0.0130564
       0.0263     0.0128637
       0.0264     0.0126726
       0.0265     0.0124831
       0.0266     0.0122952
       0.0267     0.0121089
       0.0268     0.0119243
       0.0269     0.0117413
        0.027     0.0115601
       0.0271     0.0113805
       0.0272     0.0112027
       0.0273     0.0110267
       0.0274     0.0108524
       0.0275     0.0106799
       0.0276     0.0105092
       0.0277     0.0103404
       0.0278     0.0101733
       0.0279     0.0100082
        0.028    0.00984482
       0.0281    0.00968336
       0.0282    0.00952376
       0.0283    0.00936606
       0.0284    0.00921024
       0.0285    0.00905632
       0.0286     0.0089043
       0.0287    0.00875418
       0.0288    0.00860598
       0.0289    0.00845968
        0.029     0.0083153
       0.0291    0.00817284
       0.0292    0.00803228
       0.0293    0.00789364
       0.0294    0.00775691
       0.0295    0.00762209
       0.0296    0.00748917
       0.0297    0.00735815
       0.0298    0.00722902
       0.0299    0.00710178
         0.03    0.00697641
       0.0301    0.00685293
       0.0302     0.0067313
       0.0303    0.00661153
       0.0304    0.00649361
       0.0305    0.00637752
       0.0306    0.00626326
       0.0307    0.00615081
       0.0308    0.00604016
       0.0309    0.00593129
        0.031    0.00582421
       0.0311    0.00571888
       0.0312     0.0056153
       0.0313    0.00551345
       0.0314    0.00541332
       0.0315    0.00531489
       0.0316    0.00521814
       0.0317    0.00512306
       0.0318    0.00502964
       0.0319    0.00493785
        0.032    0.00484768
       0.0321     0.0047591
       0.0322    0.00467211
       0.0323    0.00458669
       0.0324     0.0045028
       0.0325    0.00442045
       0.0326     0.0043396
       0.0327    0.00426024
       0.0328    0.00418235
       0.0329    0.00410592
        0.033    0.00403091
       0.0331    0.00395731
       0.0332    0.00388511
       0.0333    0.00381428
       0.0334    0.00374479
       0.0335    0.00367665
       0.0336    0.00360981
       0.0337    0.00354427
       0.0338       0.00348
       0.0339    0.00341698
        0.034     0.0033552
       0.0341    0.00329463
       0.0342    0.00323526
       0.0343    0.00317706
       0.0344    0.00312002
       0.0345    0.00306411
       0.0346    0.00300932
       0.0347    0.00295562
       0.0348    0.00290301
       0.0349    0.00285145
        0.035    0.00280094
       0.0351    0.00275145
       0.0352    0.00270296
       0.0353    0.00265545
       0.0354    0.00260892
       0.0355    0.00256333
       0.0356    0.00251868
       0.0357    0.00247494
       0.0358     0.0024321
       0.0359    0.00239014
        0.036    0.00234904
       0.0361    0.00230879
       0.0362    0.00226936
       0.0363    0.00223075
       0.0364    0.00219294
       0.0365    0.00215591
       0.0366    0.00211964
       0.0367    0.00208413
       0.0368    0.00204935
       0.0369    0.00201529
        0.037    0.00198194
       0.0371    0.00194928
       0.0372    0.00191729
       0.0373    0.00188597
       0.0374     0.0018553
       0.0375    0.00182526
       0.0376    0.00179584
       0.0377    0.00176704
       0.0378    0.00173883
       0.0379     0.0017112
        0.038    0.00168414
       0.0381    0.00165765
       0.0382     0.0016317
       0.0383    0.00160628
       0.0384    0.00158139
       0.0385    0.00155701
       0.0386    0.00153313
       0.0387    0.00150974
       0.0388    0.00148684
       0.0389     0.0014644
        0.039    0.00144241
       0.0391    0.00142088
       0.0392    0.00139979
       0.0393    0.00137913
       0.0394    0.00135888
       0.0395    0.00133905
       0.0396    0.00131961
       0.0397    0.00130057
       0.0398    0.00128192
       0.0399    0.00126364
         0.04    0.00124572
       0.0401    0.00122817
       0.0402    0.00121097
       0.0403    0.00119411
       0.0404    0.00117758
       0.0405    0.00116138
       0.0406    0.00114551
       0.0407    0.00112994
       0.0408    0.00111469
       0.0409    0.00109973
        0.041    0.00108507
       0.0411    0.00107069
       0.0412    0.00105659
       0.0413    0.00104277
       0.0414    0.00102922
       0.0415    0.00101592
       0.0416    0.00100289
       0.0417     0.0009901
       0.0418   0.000977558
       0.0419   0.000965256
        0.042   0.000953188
       0.0421   0.000941349
       0.0422   0.000929734
       0.0423   0.000918337
       0.0424   0.000907155
       0.0425   0.000896182
       0.0426   0.000885414
       0.0427   0.000874846
       0.0428   0.000864474
       0.0429   0.000854294
        0.043     0.0008443
       0.0431   0.000834491
       0.0432    0.00082486
       0.0433   0.000815405
       0.0434   0.000806121
       0.0435   0.000797005
       0.0436   0.000788054
       0.0437   0.000779263
       0.0438   0.000770629
       0.0439   0.000762149
        0.044   0.000753819
       0.0441   0.000745637
       0.0442   0.000737599
       0.0443   0.000729701
       0.0444   0.000721942
       0.0445   0.000714318
       0.0446   0.000706825
       0.0447   0.000699463
       0.0448   0.000692227
       0.0449   0.000685114
        0.045   0.000678124
       0.0451   0.000671252
       0.0452   0.000664496
       0.0453   0.000657854
       0.0454   0.000651324
       0.0455   0.000644903
       0.0456   0.000638588
       0.0457   0.000632379
       0.0458   0.000626272
       0.0459   0.000620265
        0.046   0.000614357
       0.0461   0.000608545
       0.0462   0.000602828
       0.0463   0.000597203
       0.0464   0.000591669
       0.0465   0.000586223
       0.0466   0.000580864
       0.0467   0.000575591
       0.0468   0.000570401
       0.0469   0.000565293
        0.047   0.000560265
       0.0471   0.000555316
       0.0472   0.000550444
       0.0473   0.000545647
       0.0474   0.000540924
       0.0475   0.000536274
       0.0476   0.000531695
       0.0477   0.000527186
       0.0478   0.000522745
       0.0479   0.000518371
        0.048   0.000514063
       0.0481    0.00050982
       0.0482   0.000505639
       0.0483   0.000501521
       0.0484   0.000497464
       0.0485   0.000493466
       0.0486   0.000489527
       0.0487   0.000485645
       0.0488    0.00048182
       0.0489    0.00047805
        0.049   0.000474334
       0.0491   0.000470672
       0.0492   0.000467062
       0.0493   0.000463503
       0.0494   0.000459994
       0.0495   0.000456535
       0.0496   0.000453125
       0.0497   0.000449762
       0.0498   0.000446445
       0.0499   0.000443175
         0.05    0.00043995
       0.0501   0.000436769
       0.0502   0.000433631
       0.0503   0.000430536
       0.0504   0.000427483
       0.0505   0.000424471
       0.0506     0.0004215
       0.0507   0.000418568
       0.0508   0.000415675
       0.0509   0.000412821
        0.051   0.000410004
       0.0511   0.000407224
       0.0512   0.000404481
       0.0513   0.000401773
       0.0514   0.000399101
       0.0515   0.000396463
       0.0516   0.000393858
       0.0517   0.000391287
       0.0518   0.000388749
       0.0519   0.000386243
        0.052   0.000383769
       0.0521   0.000381326
       0.0522   0.000378913
       0.0523   0.000376531
       0.0524   0.000374178
       0.0525   0.000371854
       0.0526   0.000369559
       0.0527   0.000367291
       0.0528   0.000365052
       0.0529    0.00036284
        0.053   0.000360654
       0.0531   0.000358495
       0.0532   0.000356362
       0.0533   0.000354254
       0.0534   0.000352171
       0.0535   0.000350113
       0.0536   0.000348079
       0.0537   0.000346069
       0.0538   0.000344083
       0.0539   0.000342119
        0.054   0.000340179
       0.0541   0.000338261
       0.0542   0.000336365
       0.0543    0.00033449
       0.0544   0.000332637
       0.0545   0.000330805
       0.0546   0.000328994
       0.0547   0.000327203
       0.0548   0.000325432
       0.0549   0.000323681
        0.055   0.000321949
       0.0551   0.000320237
       0.0552   0.000318543
       0.0553   0.000316869
       0.0554   0.000315212
       0.0555   0.000313573
       0.0556   0.000311952
       0.0557   0.000310349
       0.0558   0.000308763
       0.0559   0.000307194
        0.056   0.000305642
       0.0561   0.000304106
       0.0562   0.000302586
       0.0563   0.000301083
       0.0564   0.000299595
       0.0565   0.000298123
       0.0566   0.000296666
       0.0567   0.000295224
       0.0568   0.000293797
       0.0569   0.000292385
        0.057   0.000290987
       0.0571   0.000289603
       0.0572   0.000288234
       0.0573   0.000286878
       0.0574   0.000285536
       0.0575   0.000284208
       0.0576   0.000282893
       0.0577   0.000281591
       0.0578   0.000280302
       0.0579   0.000279025
        0.058   0.000277761
       0.0581    0.00027651
       0.0582   0.000275271
       0.0583   0.000274044
       0.0584   0.000272828
       0.0585   0.000271625
       0.0586   0.000270433
       0.0587   0.000269252
       0.0588   0.000268083
       0.0589   0.000266925
        0.059   0.000265778
       0.0591   0.000264641
       0.0592   0.000263516
       0.0593     0.0002624
       0.0594   0.000261296
       0.0595   0.000260201
       0.0596   0.000259117
       0.0597   0.000258043
       0.0598   0.000256978
       0.0599   0.000255923
         0.06   0.000254878
       0.0601   0.000253842
       0.0602   0.000252816
       0.0603   0.000251799
       0.0604   0.000250791
       0.0605   0.000249792
       0.0606   0.000248802
       0.0607   0.000247821
       0.0608   0.000246849
       0.0609   0.000245885
        0.061   0.000244929
       0.0611   0.000243982
       0.0612   0.000243043
       0.0613   0.000242113
       0.0614    0.00024119
       0.0615   0.000240275
       0.0616   0.000239368
       0.0617   0.000238469
       0.0618   0.000237578
       0.0619   0.000236694
        0.062   0.000235818
       0.0621   0.000234949
       0.0622   0.000234087
       0.0623   0.000233232
       0.0624   0.000232385
       0.0625   0.000231545
       0.0626   0.000230711
       0.0627   0.000229885
       0.0628   0.000229065
       0.0629   0.000228252
        0.063   0.000227446
       0.0631   0.000226646
       0.0632   0.000225853
       0.0633   0.000225066
       0.0634   0.000224286
       0.0635   0.000223512
       0.0636   0.000222744
       0.0637   0.000221982
       0.0638   0.000221226
       0.0639   0.000220476
        0.064   0.000219732
       0.0641   0.000218994
       0.0642   0.000218261
       0.0643   0.000217535
       0.0644   0.000216814
       0.0645   0.000216098
       0.0646   0.000215388
       0.0647   0.000214684
       0.0648   0.000213985
       0.0649   0.000213291
        0.065   0.000212603
       0.0651    0.00021192
       0.0652   0.000211242
       0.0653   0.000210569
       0.0654   0.000209901
       0.0655   0.000209238
       0.0656   0.000208581
       0.0657   0.000207928
       0.0658    0.00020728
       0.0659   0.000206636
        0.066   0.000205998
       0.0661   0.000205364
       0.0662   0.000204735
       0.0663    0.00020411
       0.0664    0.00020349
       0.0665   0.000202874
       0.0666   0.000202263
       0.0667   0.000201656
       0.0668   0.000201054
       0.0669   0.000200456
        0.067   0.000199862
       0.0671   0.000199272
       0.0672   0.000198687
       0.0673   0.000198106
       0.0674   0.000197528
       0.0675   0.000196955
       0.0676   0.000196386
       0.0677   0.000195821
       0.0678    0.00019526
       0.0679   0.000194702
        0.068   0.000194149
       0.0681   0.000193599
       0.0682   0.000193053
       0.0683   0.000192511
       0.0684   0.000191972
       0.0685   0.000191438
       0.0686   0.000190906
       0.0687   0.000190379
       0.0688   0.000189855
       0.0689   0.000189334
        0.069   0.000188817
       0.0691   0.000188303
       0.0692   0.000187793
       0.0693   0.000187286
       0.0694   0.000186783
       0.0695   0.000186283
       0.0696   0.000185786
       0.0697   0.000185292
       0.0698   0.000184802
       0.0699   0.000184315
         0.07   0.000183831
       0.0701    0.00018335
       0.0702   0.000182872
       0.0703   0.000182397
       0.0704   0.000181926
       0.0705   0.000181457
       0.0706   0.000180991
       0.0707   0.000180528
       0.0708   0.000180069
       0.0709   0.000179612
        0.071   0.000179158
       0.0711   0.000178707
       0.0712   0.000178258
       0.0713   0.000177813
       0.0714    0.00017737
       0.0715    0.00017693
       0.0716   0.000176493
       0.0717   0.000176058
       0.0718   0.000175626
       0.0719   0.000175197
        0.072    0.00017477
       0.0721   0.000174346
       0.0722   0.000173925
       0.0723   0.000173506
       0.0724   0.000173089
       0.0725   0.000172675
       0.0726   0.000172264
       0.0727   0.000171855
       0.0728   0.000171449
       0.0729   0.000171045
        0.073   0.000170643
       0.0731   0.000170244
       0.0732   0.000169847
       0.0733   0.000169452
       0.0734    0.00016906
       0.0735    0.00016867
       0.0736   0.000168282
       0.0737   0.000167897
       0.0738   0.000167514
       0.0739   0.000167133
        0.074   0.000166754
       0.0741   0.000166377
       0.0742   0.000166003
       0.0743   0.000165631
       0.0744    0.00016526
       0.0745   0.000164892
       0.0746   0.000164526
       0.0747   0.000164163
       0.0748   0.000163801
       0.0749   0.000163441
        0.075   0.000163083
       0.0751   0.000162727
       0.0752   0.000162374
       0.0753   0.000162022
       0.0754   0.000161672
       0.0755   0.000161324
       0.0756   0.000160978
       0.0757   0.000160634
       0.0758   0.000160292
       0.0759   0.000159952
        0.076   0.000159613
       0.0761   0.000159276
       0.0762   0.000158942
       0.0763   0.000158609
       0.0764   0.000158278
       0.0765   0.000157948
       0.0766   0.000157621
       0.0767   0.000157295
       0.0768   0.000156971
       0.0769   0.000156648
        0.077   0.000156328
       0.0771   0.000156009
       0.0772   0.000155691
       0.0773   0.000155376
       0.0774   0.000155062
       0.0775    0.00015475
       0.0776   0.000154439
       0.0777    0.00015413
       0.0778   0.000153823
       0.0779   0.000153517
        0.078   0.000153213
       0.0781    0.00015291
       0.0782   0.000152609
       0.0783   0.000152309
       0.0784   0.000152011
       0.0785   0.000151715
       0.0786    0.00015142
       0.0787   0.000151126
       0.0788   0.000150835
       0.0789   0.000150544
        0.079   0.000150255
       0.0791   0.000149968
       0.0792   0.000149681
       0.0793   0.000149397
       0.0794   0.000149113
       0.0795   0.000148832
       0.0796   0.000148551
       0.0797   0.000148272
       0.0798   0.000147995
       0.0799   0.000147718
         0.08   0.000147443
       0.0801    0.00014717
       0.0802   0.000146898
       0.0803   0.000146627
       0.0804   0.000146357
       0.0805   0.000146089
       0.0806   0.000145822
       0.0807   0.000145556
       0.0808   0.000145292
       0.0809   0.000145029
        0.081   0.000144767
       0.0811   0.000144506
       0.0812   0.000144247
       0.0813   0.000143989
       0.0814   0.000143732
       0.0815   0.000143477
       0.0816   0.000143222
       0.0817   0.000142969
       0.0818   0.000142717
       0.0819   0.000142466
        0.082   0.000142216
       0.0821   0.000141968
       0.0822   0.000141721
       0.0823   0.000141474
       0.0824   0.000141229
       0.0825   0.000140986
       0.0826   0.000140743
       0.0827   0.000140501
       0.0828   0.000140261
       0.0829   0.000140021
        0.083   0.000139783
       0.0831   0.000139546
       0.0832    0.00013931
       0.0833   0.000139074
       0.0834    0.00013884
       0.0835   0.000138608
       0.0836   0.000138376
       0.0837   0.000138145
       0.0838   0.000137915
       0.0839   0.000137686
        0.084   0.000137458
       0.0841   0.000137232
       0.0842   0.000137006
       0.0843   0.000136781
       0.0844   0.000136558
       0.0845   0.000136335
       0.0846   0.000136113
       0.0847   0.000135892
       0.0848   0.000135673
       0.0849   0.000135454
        0.085   0.000135236
       0.0851   0.000135019
       0.0852   0.000134803
       0.0853   0.000134588
       0.0854   0.000134374
       0.0855   0.000134161
       0.0856   0.000133949
       0.0857   0.000133737
       0.0858   0.000133527
       0.0859   0.000133317
        0.086   0.000133109
       0.0861   0.000132901
       0.0862   0.000132694
       0.0863   0.000132488
       0.0864   0.000132283
