# Probe 0 (0.05 0.05 0.005)
#       Probe             0
#        Time
       0.0001       1052.11
       0.0002       1052.11
       0.0003       1052.11
       0.0004       1052.11
       0.0005       1052.11
       0.0006       1052.11
       0.0007       1052.11
       0.0008       1052.11
       0.0009       1052.11
        0.001        1052.1
       0.0011        1052.1
       0.0012        1052.1
       0.0013        1052.1
       0.0014        1052.1
       0.0015       1052.09
       0.0016       1052.09
       0.0017       1052.09
       0.0018       1052.08
       0.0019       1052.07
        0.002       1052.07
       0.0021       1052.06
       0.0022       1052.05
       0.0023       1052.03
       0.0024       1052.02
       0.0025          1052
       0.0026       1051.99
       0.0027       1051.96
       0.0028       1051.94
       0.0029       1051.92
        0.003       1051.89
       0.0031       1051.86
       0.0032       1051.82
       0.0033       1051.79
       0.0034       1051.74
       0.0035        1051.7
       0.0036       1051.65
       0.0037        1051.6
       0.0038       1051.54
       0.0039       1051.48
        0.004       1051.41
       0.0041       1051.33
       0.0042       1051.25
       0.0043       1051.17
       0.0044       1051.08
       0.0045       1050.98
       0.0046       1050.88
       0.0047       1050.76
       0.0048       1050.65
       0.0049       1050.52
        0.005       1050.38
       0.0051       1050.24
       0.0052       1050.09
       0.0053       1049.93
       0.0054       1049.76
       0.0055       1049.58
       0.0056       1049.39
       0.0057       1049.19
       0.0058       1048.97
       0.0059       1048.75
        0.006       1048.52
       0.0061       1048.27
       0.0062       1048.01
       0.0063       1047.74
       0.0064       1047.45
       0.0065       1047.16
       0.0066       1046.84
       0.0067       1046.52
       0.0068       1046.17
       0.0069       1045.81
        0.007       1045.44
       0.0071       1045.05
       0.0072       1044.64
       0.0073       1044.22
       0.0074       1043.78
       0.0075       1043.32
       0.0076       1042.84
       0.0077       1042.34
       0.0078       1041.83
       0.0079       1041.29
        0.008       1040.73
       0.0081       1040.15
       0.0082       1039.55
       0.0083       1038.93
       0.0084       1038.28
       0.0085       1037.62
       0.0086       1036.92
       0.0087       1036.21
       0.0088       1035.47
       0.0089        1034.7
        0.009       1033.91
       0.0091       1033.09
       0.0092       1032.25
       0.0093       1031.38
       0.0094       1030.48
       0.0095       1029.55
       0.0096       1028.59
       0.0097       1027.61
       0.0098       1026.59
       0.0099       1025.55
         0.01       1024.47
       0.0101       1023.36
       0.0102       1022.22
       0.0103       1021.05
       0.0104       1019.84
       0.0105        1018.6
       0.0106       1017.33
       0.0107       1016.02
       0.0108       1014.67
       0.0109       1013.29
        0.011       1011.88
       0.0111       1010.42
       0.0112       1008.93
       0.0113        1007.4
       0.0114       1005.84
       0.0115       1004.23
       0.0116       1002.59
       0.0117        1000.9
       0.0118       999.175
       0.0119       997.408
        0.012         995.6
       0.0121       993.751
       0.0122       991.858
       0.0123       989.923
       0.0124       987.945
       0.0125       985.923
       0.0126       983.857
       0.0127       981.746
       0.0128       979.591
       0.0129       977.389
        0.013       975.142
       0.0131       972.849
       0.0132       970.509
       0.0133       968.123
       0.0134       965.688
       0.0135       963.206
       0.0136       960.676
       0.0137       958.098
       0.0138       955.471
       0.0139       952.795
        0.014        950.07
       0.0141       947.295
       0.0142        944.47
       0.0143       941.596
       0.0144       938.671
       0.0145       935.695
       0.0146       932.669
       0.0147       929.592
       0.0148       926.464
       0.0149       923.284
        0.015       920.054
       0.0151       916.771
       0.0152       913.438
       0.0153       910.052
       0.0154       906.615
       0.0155       903.127
       0.0156       899.586
       0.0157       895.994
       0.0158        892.35
       0.0159       888.655
        0.016       884.908
       0.0161       881.109
       0.0162       877.259
       0.0163       873.357
       0.0164       869.405
       0.0165       865.401
       0.0166       861.347
       0.0167       857.242
       0.0168       853.087
       0.0169       848.882
        0.017       844.627
       0.0171       840.323
       0.0172       835.969
       0.0173       831.567
       0.0174       827.116
       0.0175       822.617
       0.0176       818.071
       0.0177       813.478
       0.0178       808.838
       0.0179       804.152
        0.018        799.42
       0.0181       794.643
       0.0182       789.822
       0.0183       784.957
       0.0184       780.049
       0.0185       775.098
       0.0186       770.105
       0.0187       765.071
       0.0188       759.996
       0.0189       754.881
        0.019       749.728
       0.0191       744.536
       0.0192       739.307
       0.0193       734.041
       0.0194       728.739
       0.0195       723.403
       0.0196       718.032
       0.0197       712.629
       0.0198       707.193
       0.0199       701.726
         0.02       696.229
       0.0201       690.702
       0.0202       685.148
       0.0203       679.566
       0.0204       673.958
       0.0205       668.325
       0.0206       662.667
       0.0207       656.987
       0.0208       651.286
       0.0209       645.563
        0.021       639.821
       0.0211       634.061
       0.0212       628.283
       0.0213        622.49
       0.0214       616.681
       0.0215       610.859
       0.0216       605.025
       0.0217       599.179
       0.0218       593.323
       0.0219       587.459
        0.022       581.587
       0.0221       575.709
       0.0222       569.826
       0.0223       563.939
       0.0224       558.049
       0.0225       552.158
       0.0226       546.268
       0.0227       540.378
       0.0228       534.491
       0.0229       528.608
        0.023        522.73
       0.0231       516.859
       0.0232       510.995
       0.0233       505.139
       0.0234       499.294
       0.0235        493.46
       0.0236       487.639
       0.0237       481.831
       0.0238       476.039
       0.0239       470.262
        0.024       464.503
       0.0241       458.763
       0.0242       453.042
       0.0243       447.342
       0.0244       441.664
       0.0245       436.009
       0.0246       430.378
       0.0247       424.773
       0.0248       419.194
       0.0249       413.642
        0.025       408.119
       0.0251       402.626
       0.0252       397.163
       0.0253       391.731
       0.0254       386.332
       0.0255       380.967
       0.0256       375.636
       0.0257        370.34
       0.0258        365.08
       0.0259       359.857
        0.026       354.672
       0.0261       349.525
       0.0262       344.418
       0.0263       339.351
       0.0264       334.324
       0.0265        329.34
       0.0266       324.397
       0.0267       319.497
       0.0268       314.641
       0.0269       309.829
        0.027       305.061
       0.0271       300.339
       0.0272       295.662
       0.0273       291.032
       0.0274       286.448
       0.0275       281.911
       0.0276       277.421
       0.0277        272.98
       0.0278       268.586
       0.0279       264.241
        0.028       259.945
       0.0281       255.698
       0.0282       251.501
       0.0283       247.353
       0.0284       243.254
       0.0285       239.206
       0.0286       235.207
       0.0287       231.259
       0.0288        227.36
       0.0289       223.512
        0.029       219.715
       0.0291       215.968
       0.0292       212.271
       0.0293       208.624
       0.0294       205.028
       0.0295       201.481
       0.0296       197.985
       0.0297       194.539
       0.0298       191.143
       0.0299       187.796
         0.03       184.498
       0.0301        181.25
       0.0302       178.051
       0.0303       174.901
       0.0304       171.799
       0.0305       168.746
       0.0306       165.741
       0.0307       162.783
       0.0308       159.872
       0.0309       157.009
        0.031       154.192
       0.0311       151.422
       0.0312       148.697
       0.0313       146.019
       0.0314       143.385
       0.0315       140.796
       0.0316       138.251
       0.0317        135.75
       0.0318       133.293
       0.0319       130.879
        0.032       128.507
       0.0321       126.177
       0.0322       123.889
       0.0323       121.642
       0.0324       119.436
       0.0325        117.27
       0.0326       115.143
       0.0327       113.056
       0.0328       111.007
       0.0329       108.997
        0.033       107.024
       0.0331       105.088
       0.0332       103.189
       0.0333       101.326
       0.0334       99.4982
       0.0335       97.7057
       0.0336       95.9478
       0.0337       94.2238
       0.0338       92.5334
       0.0339       90.8759
        0.034       89.2508
       0.0341       87.6577
       0.0342        86.096
       0.0343       84.5652
       0.0344       83.0648
       0.0345       81.5943
       0.0346       80.1531
       0.0347       78.7409
       0.0348       77.3569
       0.0349       76.0009
        0.035       74.6722
       0.0351       73.3704
       0.0352       72.0951
       0.0353       70.8456
       0.0354       69.6216
       0.0355       68.4226
       0.0356       67.2481
       0.0357       66.0976
       0.0358       64.9708
       0.0359       63.8671
        0.036        62.786
       0.0361       61.7273
       0.0362       60.6903
       0.0363       59.6748
       0.0364       58.6802
       0.0365       57.7062
       0.0366       56.7524
       0.0367       55.8182
       0.0368       54.9035
       0.0369       54.0076
        0.037       53.1304
       0.0371       52.2713
       0.0372         51.43
       0.0373       50.6061
       0.0374       49.7993
       0.0375       49.0093
       0.0376       48.2356
       0.0377       47.4779
       0.0378       46.7359
       0.0379       46.0092
        0.038       45.2975
       0.0381       44.6006
       0.0382        43.918
       0.0383       43.2496
       0.0384       42.5948
       0.0385       41.9536
       0.0386       41.3255
       0.0387       40.7103
       0.0388       40.1078
       0.0389       39.5176
        0.039       38.9394
       0.0391        38.373
       0.0392       37.8182
       0.0393       37.2747
       0.0394       36.7422
       0.0395       36.2205
       0.0396       35.7094
       0.0397       35.2086
       0.0398       34.7179
       0.0399       34.2371
         0.04       33.7659
       0.0401       33.3042
       0.0402       32.8517
       0.0403       32.4082
       0.0404       31.9735
       0.0405       31.5475
       0.0406       31.1299
       0.0407       30.7206
       0.0408       30.3193
       0.0409       29.9259
        0.041       29.5402
       0.0411        29.162
       0.0412       28.7913
       0.0413       28.4277
       0.0414       28.0712
       0.0415       27.7215
       0.0416       27.3786
       0.0417       27.0423
       0.0418       26.7124
       0.0419       26.3888
        0.042       26.0714
       0.0421         25.76
       0.0422       25.4545
       0.0423       25.1547
       0.0424       24.8606
       0.0425        24.572
       0.0426       24.2888
       0.0427       24.0108
       0.0428        23.738
       0.0429       23.4702
        0.043       23.2074
       0.0431       22.9494
       0.0432        22.696
       0.0433       22.4473
       0.0434       22.2032
       0.0435       21.9634
       0.0436       21.7279
       0.0437       21.4967
       0.0438       21.2696
       0.0439       21.0466
        0.044       20.8275
       0.0441       20.6123
       0.0442       20.4008
       0.0443       20.1931
       0.0444        19.989
       0.0445       19.7885
       0.0446       19.5914
       0.0447       19.3978
       0.0448       19.2074
       0.0449       19.0204
        0.045       18.8365
       0.0451       18.6557
       0.0452        18.478
       0.0453       18.3033
       0.0454       18.1316
       0.0455       17.9627
       0.0456       17.7966
       0.0457       17.6333
       0.0458       17.4726
       0.0459       17.3147
        0.046       17.1593
       0.0461       17.0064
       0.0462        16.856
       0.0463        16.708
       0.0464       16.5625
       0.0465       16.4192
       0.0466       16.2783
       0.0467       16.1396
       0.0468       16.0031
       0.0469       15.8687
        0.047       15.7365
       0.0471       15.6063
       0.0472       15.4781
       0.0473        15.352
       0.0474       15.2278
       0.0475       15.1054
       0.0476        14.985
       0.0477       14.8664
       0.0478       14.7496
       0.0479       14.6346
        0.048       14.5212
       0.0481       14.4096
       0.0482       14.2997
       0.0483       14.1914
       0.0484       14.0846
       0.0485       13.9795
       0.0486       13.8759
       0.0487       13.7738
       0.0488       13.6732
       0.0489        13.574
        0.049       13.4763
       0.0491       13.3799
       0.0492        13.285
       0.0493       13.1914
       0.0494       13.0991
       0.0495       13.0081
       0.0496       12.9184
       0.0497       12.8299
       0.0498       12.7427
       0.0499       12.6567
         0.05       12.5719
       0.0501       12.4882
       0.0502       12.4057
       0.0503       12.3243
       0.0504        12.244
       0.0505       12.1647
       0.0506       12.0866
       0.0507       12.0095
       0.0508       11.9334
       0.0509       11.8583
        0.051       11.7842
       0.0511       11.7111
       0.0512       11.6389
       0.0513       11.5677
       0.0514       11.4974
       0.0515        11.428
       0.0516       11.3595
       0.0517       11.2919
       0.0518       11.2252
       0.0519       11.1592
        0.052       11.0942
       0.0521       11.0299
       0.0522       10.9664
       0.0523       10.9038
       0.0524       10.8419
       0.0525       10.7808
       0.0526       10.7204
       0.0527       10.6608
       0.0528       10.6018
       0.0529       10.5437
        0.053       10.4862
       0.0531       10.4294
       0.0532       10.3733
       0.0533       10.3178
       0.0534        10.263
       0.0535       10.2089
       0.0536       10.1554
       0.0537       10.1026
       0.0538       10.0503
       0.0539       9.99866
        0.054       9.94762
       0.0541       9.89717
       0.0542       9.84729
       0.0543       9.79799
       0.0544       9.74925
       0.0545       9.70107
       0.0546       9.65342
       0.0547       9.60632
       0.0548       9.55974
       0.0549       9.51368
        0.055       9.46814
       0.0551        9.4231
       0.0552       9.37855
       0.0553        9.3345
       0.0554       9.29092
       0.0555       9.24782
       0.0556       9.20519
       0.0557       9.16302
       0.0558        9.1213
       0.0559       9.08003
        0.056        9.0392
       0.0561        8.9988
       0.0562       8.95883
       0.0563       8.91928
       0.0564       8.88015
       0.0565       8.84143
       0.0566       8.80311
       0.0567       8.76518
       0.0568       8.72765
       0.0569        8.6905
        0.057       8.65374
       0.0571       8.61735
       0.0572       8.58133
       0.0573       8.54567
       0.0574       8.51038
       0.0575       8.47543
       0.0576       8.44084
       0.0577       8.40659
       0.0578       8.37269
       0.0579       8.33911
        0.058       8.30587
       0.0581       8.27296
       0.0582       8.24036
       0.0583       8.20808
       0.0584       8.17612
       0.0585       8.14446
       0.0586       8.11311
       0.0587       8.08206
       0.0588       8.05131
       0.0589       8.02084
        0.059       7.99067
       0.0591       7.96078
       0.0592       7.93117
       0.0593       7.90184
       0.0594       7.87278
       0.0595       7.84399
       0.0596       7.81547
       0.0597       7.78721
       0.0598       7.75921
       0.0599       7.73147
         0.06       7.70398
       0.0601       7.67674
       0.0602       7.64975
       0.0603         7.623
       0.0604       7.59649
       0.0605       7.57021
       0.0606       7.54417
       0.0607       7.51836
       0.0608       7.49278
       0.0609       7.46743
        0.061        7.4423
       0.0611       7.41739
       0.0612       7.39269
       0.0613       7.36821
       0.0614       7.34394
       0.0615       7.31988
       0.0616       7.29603
       0.0617       7.27238
       0.0618       7.24894
       0.0619       7.22569
        0.062       7.20264
       0.0621       7.17978
       0.0622       7.15712
       0.0623       7.13464
       0.0624       7.11235
       0.0625       7.09025
       0.0626       7.06833
       0.0627        7.0466
       0.0628       7.02504
       0.0629       7.00365
        0.063       6.98245
       0.0631       6.96141
       0.0632       6.94055
       0.0633       6.91985
       0.0634       6.89932
       0.0635       6.87896
       0.0636       6.85876
       0.0637       6.83871
       0.0638       6.81883
       0.0639       6.79911
        0.064       6.77954
       0.0641       6.76013
       0.0642       6.74086
       0.0643       6.72175
       0.0644       6.70279
       0.0645       6.68397
       0.0646        6.6653
       0.0647       6.64677
       0.0648       6.62838
       0.0649       6.61014
        0.065       6.59203
       0.0651       6.57406
       0.0652       6.55623
       0.0653       6.53853
       0.0654       6.52097
       0.0655       6.50354
       0.0656       6.48623
       0.0657       6.46906
       0.0658       6.45201
       0.0659       6.43509
        0.066       6.41829
       0.0661       6.40162
       0.0662       6.38507
       0.0663       6.36864
       0.0664       6.35233
       0.0665       6.33614
       0.0666       6.32006
       0.0667        6.3041
       0.0668       6.28826
       0.0669       6.27253
        0.067       6.25691
       0.0671        6.2414
       0.0672         6.226
       0.0673       6.21071
       0.0674       6.19553
       0.0675       6.18045
       0.0676       6.16548
       0.0677       6.15062
       0.0678       6.13585
       0.0679       6.12119
        0.068       6.10664
       0.0681       6.09218
       0.0682       6.07782
       0.0683       6.06356
       0.0684       6.04939
       0.0685       6.03532
       0.0686       6.02135
       0.0687       6.00747
       0.0688       5.99369
       0.0689          5.98
        0.069        5.9664
       0.0691       5.95289
       0.0692       5.93947
       0.0693       5.92614
       0.0694       5.91289
       0.0695       5.89974
       0.0696       5.88667
       0.0697       5.87369
       0.0698       5.86079
       0.0699       5.84797
         0.07       5.83524
       0.0701       5.82259
       0.0702       5.81002
       0.0703       5.79754
       0.0704       5.78513
       0.0705        5.7728
       0.0706       5.76056
       0.0707       5.74838
       0.0708       5.73629
       0.0709       5.72427
        0.071       5.71233
       0.0711       5.70046
       0.0712       5.68867
       0.0713       5.67695
       0.0714       5.66531
       0.0715       5.65373
       0.0716       5.64223
       0.0717        5.6308
       0.0718       5.61944
       0.0719       5.60815
        0.072       5.59693
       0.0721       5.58577
       0.0722       5.57469
       0.0723       5.56367
       0.0724       5.55272
       0.0725       5.54183
       0.0726       5.53101
       0.0727       5.52025
       0.0728       5.50956
       0.0729       5.49893
        0.073       5.48837
       0.0731       5.47787
       0.0732       5.46743
       0.0733       5.45705
       0.0734       5.44673
       0.0735       5.43647
       0.0736       5.42628
       0.0737       5.41614
       0.0738       5.40606
       0.0739       5.39604
        0.074       5.38608
       0.0741       5.37617
       0.0742       5.36632
       0.0743       5.35653
       0.0744        5.3468
       0.0745       5.33711
       0.0746       5.32749
       0.0747       5.31792
       0.0748        5.3084
       0.0749       5.29894
        0.075       5.28953
       0.0751       5.28017
       0.0752       5.27086
       0.0753       5.26161
       0.0754       5.25241
       0.0755       5.24326
       0.0756       5.23416
       0.0757       5.22511
       0.0758       5.21611
       0.0759       5.20716
        0.076       5.19825
       0.0761        5.1894
       0.0762       5.18059
       0.0763       5.17184
       0.0764       5.16313
       0.0765       5.15446
       0.0766       5.14585
       0.0767       5.13728
       0.0768       5.12875
       0.0769       5.12027
        0.077       5.11184
       0.0771       5.10345
       0.0772        5.0951
       0.0773        5.0868
       0.0774       5.07855
       0.0775       5.07033
       0.0776       5.06216
       0.0777       5.05403
       0.0778       5.04595
       0.0779       5.03791
        0.078        5.0299
       0.0781       5.02194
       0.0782       5.01402
       0.0783       5.00615
       0.0784       4.99831
       0.0785       4.99051
       0.0786       4.98275
       0.0787       4.97503
       0.0788       4.96735
       0.0789       4.95971
        0.079       4.95211
       0.0791       4.94455
       0.0792       4.93702
       0.0793       4.92954
       0.0794       4.92209
       0.0795       4.91467
       0.0796        4.9073
       0.0797       4.89996
       0.0798       4.89266
       0.0799       4.88539
         0.08       4.87816
       0.0801       4.87096
       0.0802        4.8638
       0.0803       4.85668
       0.0804       4.84959
       0.0805       4.84253
       0.0806       4.83551
       0.0807       4.82852
       0.0808       4.82157
       0.0809       4.81465
        0.081       4.80776
       0.0811       4.80091
       0.0812       4.79409
       0.0813        4.7873
       0.0814       4.78054
       0.0815       4.77382
       0.0816       4.76713
       0.0817       4.76047
       0.0818       4.75384
       0.0819       4.74724
        0.082       4.74068
       0.0821       4.73414
       0.0822       4.72763
       0.0823       4.72116
       0.0824       4.71471
       0.0825        4.7083
       0.0826       4.70191
       0.0827       4.69556
       0.0828       4.68923
       0.0829       4.68294
        0.083       4.67667
       0.0831       4.67043
       0.0832       4.66422
       0.0833       4.65803
       0.0834       4.65188
       0.0835       4.64575
       0.0836       4.63965
       0.0837       4.63358
       0.0838       4.62754
       0.0839       4.62152
        0.084       4.61553
       0.0841       4.60956
       0.0842       4.60363
       0.0843       4.59772
       0.0844       4.59183
       0.0845       4.58598
       0.0846       4.58014
       0.0847       4.57434
       0.0848       4.56856
       0.0849        4.5628
        0.085       4.55707
       0.0851       4.55136
       0.0852       4.54568
       0.0853       4.54003
       0.0854        4.5344
       0.0855       4.52879
       0.0856       4.52321
       0.0857       4.51765
       0.0858       4.51212
       0.0859        4.5066
        0.086       4.50112
       0.0861       4.49565
       0.0862       4.49021
       0.0863        4.4848
       0.0864        4.4794
