0.000000e+00 	1164608549.510389 	9.066180 
1.446559e-14 	1164608549.510389 	9.066180 
2.893117e-14 	1164608549.510389 	9.066180 
4.339676e-14 	1164608549.510389 	9.066180 
5.786235e-14 	1164608549.510389 	9.066180 
1.301903e-13 	1164608549.510389 	9.066180 
2.025182e-13 	1164608549.510389 	9.066180 
2.748461e-13 	1164608549.510389 	9.066180 
3.471741e-13 	1164608549.510389 	9.066180 
7.088137e-13 	1164608549.510389 	9.066180 
1.070453e-12 	1164608549.510389 	9.066180 
1.432093e-12 	1164608549.510389 	9.066180 
1.793733e-12 	1164608549.510389 	9.066180 
3.601931e-12 	1164608549.510389 	9.066180 
5.410129e-12 	1164608549.510389 	9.066180 
7.218328e-12 	1164608549.510389 	9.066180 
9.026526e-12 	1164608549.510389 	9.066180 
1.806752e-11 	1164608549.510389 	9.066180 
2.710851e-11 	1164608549.510389 	9.066180 
3.614950e-11 	1164608549.510389 	9.066180 
4.519049e-11 	1164608549.510389 	9.066180 
9.039545e-11 	1164608549.510389 	9.066180 
1.356004e-10 	1164608549.510389 	9.066180 
1.808054e-10 	1164608549.510389 	9.066180 
2.260103e-10 	1164608549.510389 	9.066180 
4.520351e-10 	1164608549.510389 	9.066180 
6.780599e-10 	1164608549.510389 	9.066180 
9.040847e-10 	1164608549.510389 	9.066180 
1.130109e-09 	1164608549.510389 	9.066180 
2.260233e-09 	1164608549.510389 	9.066180 
3.390357e-09 	1164608549.510389 	9.066180 
4.520481e-09 	1164608549.510389 	9.066180 
5.650605e-09 	1164608549.510389 	9.066180 
1.130122e-08 	1164608549.510389 	9.066180 
1.695184e-08 	1164608549.510389 	9.066180 
2.260246e-08 	1164608549.510389 	9.066180 
2.825308e-08 	1164608549.510389 	9.066180 
5.650618e-08 	1164608549.510389 	9.066180 
8.475928e-08 	1164608549.510389 	9.066180 
1.130124e-07 	1164608549.510389 	9.066180 
1.412655e-07 	1164608549.510389 	9.066180 
2.825310e-07 	1164608549.510389 	9.066180 
4.237965e-07 	1164608549.510388 	9.066180 
5.650619e-07 	1164608549.510388 	9.066180 
7.063274e-07 	1164608549.510386 	9.066180 
1.412655e-06 	1164608549.510339 	9.066180 
2.118982e-06 	1164608549.510134 	9.066180 
2.825310e-06 	1164608549.509583 	9.066180 
3.531637e-06 	1164608549.508423 	9.066180 
7.063275e-06 	1164608549.478930 	9.066180 
1.059491e-05 	1164608549.351126 	9.066180 
1.412655e-05 	1164608549.007041 	9.066180 
1.765819e-05 	1164608548.281512 	9.066180 
3.531637e-05 	1164608529.848366 	9.066180 
5.297456e-05 	1164608449.971371 	9.066180 
7.063275e-05 	1164608234.917958 	9.066180 
8.829093e-05 	1164607781.462651 	9.066180 
1.765819e-04 	1164596262.851555 	9.066175 
2.648728e-04 	1164546338.124078 	9.066157 
3.531637e-04 	1164411938.342484 	9.066107 
4.414547e-04 	1164128615.402805 	9.066001 
6.093362e-04 	1162867692.423181 	9.065530 
7.772177e-04 	1160004539.038726 	9.064460 
9.450992e-04 	1154567351.901651 	9.062419 
1.112981e-03 	1145381444.635307 	9.058950 
1.308115e-03 	1128218777.699754 	9.052393 
1.503248e-03 	1101906380.374594 	9.042145 
1.698382e-03 	1064265472.870016 	9.027050 
1.893516e-03 	1013460072.305321 	9.005807 
2.032427e-03 	968594110.019274 	8.986142 
2.171338e-03 	916348230.932803 	8.962061 
2.310249e-03 	856978668.614398 	8.932970 
2.449160e-03 	791164013.554906 	8.898267 
2.555611e-03 	737029038.671681 	8.867485 
2.662063e-03 	680369199.736398 	8.832745 
2.768515e-03 	621943984.172367 	8.793751 
2.874967e-03 	562624215.414097 	8.750218 
2.981419e-03 	503344767.501055 	8.701866 
3.087871e-03 	445041814.060708 	8.648401 
3.194323e-03 	388635970.337407 	8.589543 
3.300775e-03 	334994557.514384 	8.525038 
3.413598e-03 	281999129.376617 	8.450248 
3.526422e-03 	233655689.578802 	8.368576 
3.639246e-03 	190450101.778509 	8.279781 
3.752070e-03 	152645407.504493 	8.183684 
3.851491e-03 	123836585.851326 	8.092849 
3.950912e-03 	99124421.989556 	7.996181 
4.050332e-03 	78282230.183841 	7.893663 
4.149753e-03 	60998920.701780 	7.785322 
4.229869e-03 	49411734.586549 	7.693830 
4.309984e-03 	39689179.512057 	7.598672 
4.390099e-03 	31618713.814710 	7.499944 
4.470215e-03 	24989530.465642 	7.397758 
4.540393e-03 	20207418.608473 	7.305511 
4.610572e-03 	16249257.286189 	7.210834 
4.680751e-03 	12997520.951936 	7.113861 
4.750930e-03 	10345123.055540 	7.014736 
4.820454e-03 	8214264.649803 	6.914569 
4.889978e-03 	6495679.274964 	6.812625 
4.959502e-03 	5117948.316071 	6.709096 
5.029027e-03 	4019592.076280 	6.604182 
5.092247e-03 	3219253.354729 	6.507755 
5.155467e-03 	2573529.450902 	6.410529 
5.218687e-03 	2054375.837491 	6.312680 
5.281908e-03 	1638274.682306 	6.214387 
5.336994e-03 	1344371.417223 	6.128519 
5.392081e-03 	1103001.251121 	6.042576 
5.447168e-03 	905062.891819 	5.956679 
5.502255e-03 	742933.631913 	5.870950 
5.557085e-03 	610813.727880 	5.785909 
5.611915e-03 	502654.424281 	5.701270 
5.666745e-03 	414136.946359 	5.617144 
5.721575e-03 	341698.096619 	5.533643 
5.778695e-03 	280177.255773 	5.447433 
5.835815e-03 	230210.787440 	5.362126 
5.892934e-03 	189593.833527 	5.277824 
5.950054e-03 	156540.958773 	5.194628 
6.013396e-03 	126990.906212 	5.103773 
6.076739e-03 	103394.330279 	5.014497 
6.140081e-03 	84507.395865 	4.926895 
6.203424e-03 	69351.180315 	4.841054 
6.282573e-03 	54498.043820 	4.736381 
6.361723e-03 	43120.028882 	4.634679 
6.440873e-03 	34357.581655 	4.536023 
6.520022e-03 	27572.243973 	4.440472 
6.603454e-03 	22036.974031 	4.343152 
6.686885e-03 	17754.902121 	4.249318 
6.770317e-03 	14419.505450 	4.158950 
6.853748e-03 	11803.341974 	4.072005 
6.927492e-03 	9953.011838 	3.997955 
7.001236e-03 	8442.634764 	3.926478 
7.074979e-03 	7203.096145 	3.857519 
7.148723e-03 	6180.271228 	3.791008 
7.228979e-03 	5263.958171 	3.721312 
7.309234e-03 	4511.683933 	3.654339 
7.389489e-03 	3890.397990 	3.589994 
7.469745e-03 	3374.189250 	3.528169 
7.561530e-03 	2886.727554 	3.460406 
7.653315e-03 	2486.907745 	3.395660 
7.745101e-03 	2156.724816 	3.333795 
7.836886e-03 	1882.134938 	3.274651 
7.959269e-03 	1583.922207 	3.199734 
8.081652e-03 	1346.175703 	3.129102 
8.204035e-03 	1154.774795 	3.062497 
8.326417e-03 	999.039108 	2.999582 
8.450634e-03 	869.292890 	2.939166 
8.574852e-03 	762.139454 	2.882034 
8.699069e-03 	672.939564 	2.827976 
8.823286e-03 	598.052260 	2.776739 
8.940611e-03 	537.928900 	2.730725 
9.057936e-03 	486.291091 	2.686896 
9.175261e-03 	441.690336 	2.645118 
9.292586e-03 	402.942958 	2.605244 
9.415060e-03 	367.708523 	2.565504 
9.537533e-03 	336.959874 	2.527578 
9.660007e-03 	309.994502 	2.491354 
9.782480e-03 	286.228557 	2.456713 
9.913437e-03 	263.815180 	2.421300 
1.004439e-02 	244.045148 	2.387470 
1.017535e-02 	226.529366 	2.355125 
1.030631e-02 	210.940771 	2.324161 
1.044825e-02 	195.907540 	2.292051 
1.059018e-02 	182.541195 	2.261361 
1.073212e-02 	170.608021 	2.231999 
1.087406e-02 	159.909880 	2.203875 
1.102920e-02 	149.434122 	2.174450 
1.118435e-02 	140.060456 	2.146316 
1.133949e-02 	131.640490 	2.119389 
1.149464e-02 	124.047560 	2.093588 
1.166526e-02 	116.525465 	2.066421 
1.183588e-02 	109.759068 	2.040440 
1.200649e-02 	103.650102 	2.015570 
1.217711e-02 	98.114210 	1.991732 
1.236563e-02 	92.578416 	1.966510 
1.255415e-02 	87.576293 	1.942387 
1.274266e-02 	83.040543 	1.919290 
1.293118e-02 	78.913106 	1.897149 
1.314026e-02 	74.753415 	1.873631 
1.334934e-02 	70.980008 	1.851136 
1.355841e-02 	67.545489 	1.829596 
1.376749e-02 	64.408793 	1.808945 
1.400011e-02 	61.226426 	1.786939 
1.423272e-02 	58.329629 	1.765889 
1.446534e-02 	55.684220 	1.745732 
1.469795e-02 	53.260469 	1.726405 
1.495745e-02 	50.787101 	1.705753 
1.521695e-02 	48.528770 	1.685999 
1.547645e-02 	46.460311 	1.667082 
1.573595e-02 	44.559760 	1.648943 
1.602611e-02 	42.610331 	1.629515 
1.631627e-02 	40.825480 	1.610931 
1.660644e-02 	39.186343 	1.593135 
1.689660e-02 	37.676403 	1.576069 
1.722173e-02 	36.120524 	1.557754 
1.754685e-02 	34.692446 	1.540235 
1.787197e-02 	33.377799 	1.523458 
1.819710e-02 	32.163961 	1.507370 
1.856206e-02 	30.908029 	1.490071 
1.892702e-02 	29.752644 	1.473526 
1.929199e-02 	28.686700 	1.457681 
1.965695e-02 	27.700416 	1.442486 
1.974271e-02 	27.479265 	1.439005 
1.982848e-02 	27.261950 	1.435557 
1.991424e-02 	27.048375 	1.432141 
2.000000e-02 	26.838448 	1.428757 
