# Probe 0 (0.05 0.05 0.005)
#       Probe             0
#        Time
       0.0001       9.06618
       0.0002       9.06618
       0.0003       9.06618
       0.0004       9.06618
       0.0005       9.06618
       0.0006       9.06618
       0.0007       9.06618
       0.0008       9.06618
       0.0009       9.06618
        0.001       9.06618
       0.0011       9.06618
       0.0012       9.06617
       0.0013       9.06617
       0.0014       9.06617
       0.0015       9.06616
       0.0016       9.06616
       0.0017       9.06615
       0.0018       9.06615
       0.0019       9.06614
        0.002       9.06613
       0.0021       9.06612
       0.0022        9.0661
       0.0023       9.06609
       0.0024       9.06607
       0.0025       9.06605
       0.0026       9.06603
       0.0027         9.066
       0.0028       9.06598
       0.0029       9.06594
        0.003       9.06591
       0.0031       9.06587
       0.0032       9.06583
       0.0033       9.06578
       0.0034       9.06573
       0.0035       9.06567
       0.0036       9.06561
       0.0037       9.06555
       0.0038       9.06548
       0.0039        9.0654
        0.004       9.06531
       0.0041       9.06522
       0.0042       9.06512
       0.0043       9.06502
       0.0044       9.06491
       0.0045       9.06478
       0.0046       9.06465
       0.0047       9.06452
       0.0048       9.06437
       0.0049       9.06421
        0.005       9.06404
       0.0051       9.06387
       0.0052       9.06368
       0.0053       9.06348
       0.0054       9.06327
       0.0055       9.06304
       0.0056       9.06281
       0.0057       9.06256
       0.0058        9.0623
       0.0059       9.06202
        0.006       9.06173
       0.0061       9.06142
       0.0062        9.0611
       0.0063       9.06076
       0.0064       9.06041
       0.0065       9.06003
       0.0066       9.05964
       0.0067       9.05924
       0.0068       9.05881
       0.0069       9.05836
        0.007        9.0579
       0.0071       9.05741
       0.0072        9.0569
       0.0073       9.05638
       0.0074       9.05582
       0.0075       9.05525
       0.0076       9.05465
       0.0077       9.05403
       0.0078       9.05338
       0.0079       9.05271
        0.008       9.05201
       0.0081       9.05129
       0.0082       9.05054
       0.0083       9.04976
       0.0084       9.04895
       0.0085       9.04811
       0.0086       9.04724
       0.0087       9.04634
       0.0088       9.04541
       0.0089       9.04445
        0.009       9.04345
       0.0091       9.04242
       0.0092       9.04135
       0.0093       9.04025
       0.0094       9.03912
       0.0095       9.03794
       0.0096       9.03673
       0.0097       9.03548
       0.0098        9.0342
       0.0099       9.03287
         0.01        9.0315
       0.0101       9.03009
       0.0102       9.02863
       0.0103       9.02714
       0.0104        9.0256
       0.0105       9.02401
       0.0106       9.02238
       0.0107        9.0207
       0.0108       9.01898
       0.0109       9.01721
        0.011       9.01538
       0.0111       9.01351
       0.0112       9.01159
       0.0113       9.00961
       0.0114       9.00758
       0.0115        9.0055
       0.0116       9.00336
       0.0117       9.00117
       0.0118       8.99892
       0.0119       8.99662
        0.012       8.99426
       0.0121       8.99183
       0.0122       8.98935
       0.0123        8.9868
       0.0124        8.9842
       0.0125       8.98153
       0.0126        8.9788
       0.0127         8.976
       0.0128       8.97313
       0.0129        8.9702
        0.013        8.9672
       0.0131       8.96414
       0.0132         8.961
       0.0133       8.95779
       0.0134       8.95451
       0.0135       8.95116
       0.0136       8.94773
       0.0137       8.94423
       0.0138       8.94065
       0.0139         8.937
        0.014       8.93327
       0.0141       8.92946
       0.0142       8.92557
       0.0143       8.92159
       0.0144       8.91754
       0.0145        8.9134
       0.0146       8.90918
       0.0147       8.90488
       0.0148       8.90049
       0.0149       8.89601
        0.015       8.89144
       0.0151       8.88678
       0.0152       8.88204
       0.0153        8.8772
       0.0154       8.87227
       0.0155       8.86725
       0.0156       8.86213
       0.0157       8.85692
       0.0158       8.85161
       0.0159        8.8462
        0.016       8.84069
       0.0161       8.83509
       0.0162       8.82938
       0.0163       8.82358
       0.0164       8.81767
       0.0165       8.81165
       0.0166       8.80553
       0.0167       8.79931
       0.0168       8.79298
       0.0169       8.78654
        0.017       8.77999
       0.0171       8.77334
       0.0172       8.76657
       0.0173       8.75969
       0.0174        8.7527
       0.0175       8.74559
       0.0176       8.73837
       0.0177       8.73104
       0.0178       8.72358
       0.0179       8.71601
        0.018       8.70833
       0.0181       8.70052
       0.0182       8.69259
       0.0183       8.68454
       0.0184       8.67637
       0.0185       8.66807
       0.0186       8.65965
       0.0187        8.6511
       0.0188       8.64243
       0.0189       8.63364
        0.019       8.62471
       0.0191       8.61566
       0.0192       8.60647
       0.0193       8.59716
       0.0194       8.58772
       0.0195       8.57814
       0.0196       8.56843
       0.0197       8.55859
       0.0198       8.54861
       0.0199        8.5385
         0.02       8.52826
       0.0201       8.51787
       0.0202       8.50735
       0.0203       8.49669
       0.0204        8.4859
       0.0205       8.47496
       0.0206       8.46389
       0.0207       8.45267
       0.0208       8.44131
       0.0209       8.42982
        0.021       8.41818
       0.0211       8.40639
       0.0212       8.39447
       0.0213        8.3824
       0.0214       8.37018
       0.0215       8.35782
       0.0216       8.34532
       0.0217       8.33267
       0.0218       8.31987
       0.0219       8.30693
        0.022       8.29384
       0.0221       8.28061
       0.0222       8.26723
       0.0223        8.2537
       0.0224       8.24002
       0.0225       8.22619
       0.0226       8.21222
       0.0227       8.19809
       0.0228       8.18382
       0.0229        8.1694
        0.023       8.15483
       0.0231       8.14012
       0.0232       8.12525
       0.0233       8.11023
       0.0234       8.09507
       0.0235       8.07976
       0.0236        8.0643
       0.0237       8.04869
       0.0238       8.03293
       0.0239       8.01702
        0.024       8.00097
       0.0241       7.98476
       0.0242       7.96841
       0.0243       7.95192
       0.0244       7.93527
       0.0245       7.91849
       0.0246       7.90155
       0.0247       7.88447
       0.0248       7.86724
       0.0249       7.84987
        0.025       7.83236
       0.0251        7.8147
       0.0252       7.79691
       0.0253       7.77896
       0.0254       7.76088
       0.0255       7.74266
       0.0256        7.7243
       0.0257        7.7058
       0.0258       7.68716
       0.0259       7.66839
        0.026       7.64948
       0.0261       7.63044
       0.0262       7.61126
       0.0263       7.59195
       0.0264        7.5725
       0.0265       7.55293
       0.0266       7.53323
       0.0267        7.5134
       0.0268       7.49345
       0.0269       7.47337
        0.027       7.45316
       0.0271       7.43283
       0.0272       7.41239
       0.0273       7.39182
       0.0274       7.37114
       0.0275       7.35033
       0.0276       7.32942
       0.0277       7.30839
       0.0278       7.28725
       0.0279         7.266
        0.028       7.24465
       0.0281       7.22318
       0.0282       7.20162
       0.0283       7.17995
       0.0284       7.15818
       0.0285       7.13631
       0.0286       7.11435
       0.0287       7.09229
       0.0288       7.07014
       0.0289       7.04791
        0.029       7.02558
       0.0291       7.00317
       0.0292       6.98067
       0.0293       6.95809
       0.0294       6.93544
       0.0295       6.91271
       0.0296        6.8899
       0.0297       6.86702
       0.0298       6.84407
       0.0299       6.82106
         0.03       6.79798
       0.0301       6.77484
       0.0302       6.75164
       0.0303       6.72838
       0.0304       6.70507
       0.0305        6.6817
       0.0306       6.65829
       0.0307       6.63483
       0.0308       6.61132
       0.0309       6.58777
        0.031       6.56419
       0.0311       6.54057
       0.0312       6.51691
       0.0313       6.49322
       0.0314       6.46951
       0.0315       6.44577
       0.0316       6.42201
       0.0317       6.39822
       0.0318       6.37442
       0.0319       6.35061
        0.032       6.32678
       0.0321       6.30294
       0.0322        6.2791
       0.0323       6.25525
       0.0324        6.2314
       0.0325       6.20756
       0.0326       6.18372
       0.0327       6.15988
       0.0328       6.13605
       0.0329       6.11224
        0.033       6.08844
       0.0331       6.06466
       0.0332        6.0409
       0.0333       6.01716
       0.0334       5.99345
       0.0335       5.96976
       0.0336        5.9461
       0.0337       5.92248
       0.0338        5.8989
       0.0339       5.87535
        0.034       5.85184
       0.0341       5.82837
       0.0342       5.80495
       0.0343       5.78158
       0.0344       5.75825
       0.0345       5.73498
       0.0346       5.71176
       0.0347        5.6886
       0.0348        5.6655
       0.0349       5.64246
        0.035       5.61948
       0.0351       5.59656
       0.0352       5.57372
       0.0353       5.55094
       0.0354       5.52823
       0.0355        5.5056
       0.0356       5.48304
       0.0357       5.46056
       0.0358       5.43815
       0.0359       5.41583
        0.036       5.39359
       0.0361       5.37143
       0.0362       5.34936
       0.0363       5.32737
       0.0364       5.30548
       0.0365       5.28367
       0.0366       5.26195
       0.0367       5.24033
       0.0368        5.2188
       0.0369       5.19737
        0.037       5.17603
       0.0371       5.15479
       0.0372       5.13365
       0.0373       5.11261
       0.0374       5.09167
       0.0375       5.07083
       0.0376        5.0501
       0.0377       5.02947
       0.0378       5.00895
       0.0379       4.98853
        0.038       4.96822
       0.0381       4.94802
       0.0382       4.92793
       0.0383       4.90794
       0.0384       4.88807
       0.0385       4.86831
       0.0386       4.84865
       0.0387       4.82911
       0.0388       4.80969
       0.0389       4.79037
        0.039       4.77117
       0.0391       4.75208
       0.0392        4.7331
       0.0393       4.71424
       0.0394        4.6955
       0.0395       4.67687
       0.0396       4.65835
       0.0397       4.63995
       0.0398       4.62166
       0.0399       4.60349
         0.04       4.58544
       0.0401        4.5675
       0.0402       4.54967
       0.0403       4.53196
       0.0404       4.51437
       0.0405        4.4969
       0.0406       4.47953
       0.0407       4.46229
       0.0408       4.44516
       0.0409       4.42814
        0.041       4.41124
       0.0411       4.39445
       0.0412       4.37778
       0.0413       4.36122
       0.0414       4.34478
       0.0415       4.32845
       0.0416       4.31223
       0.0417       4.29613
       0.0418       4.28014
       0.0419       4.26426
        0.042       4.24849
       0.0421       4.23284
       0.0422       4.21729
       0.0423       4.20186
       0.0424       4.18654
       0.0425       4.17132
       0.0426       4.15622
       0.0427       4.14122
       0.0428       4.12633
       0.0429       4.11155
        0.043       4.09688
       0.0431       4.08231
       0.0432       4.06785
       0.0433       4.05349
       0.0434       4.03924
       0.0435        4.0251
       0.0436       4.01106
       0.0437       3.99712
       0.0438       3.98328
       0.0439       3.96954
        0.044       3.95591
       0.0441       3.94238
       0.0442       3.92894
       0.0443       3.91561
       0.0444       3.90237
       0.0445       3.88924
       0.0446        3.8762
       0.0447       3.86325
       0.0448       3.85041
       0.0449       3.83766
        0.045         3.825
       0.0451       3.81244
       0.0452       3.79997
       0.0453       3.78759
       0.0454       3.77531
       0.0455       3.76311
       0.0456       3.75101
       0.0457         3.739
       0.0458       3.72708
       0.0459       3.71524
        0.046       3.70349
       0.0461       3.69184
       0.0462       3.68026
       0.0463       3.66878
       0.0464       3.65738
       0.0465       3.64606
       0.0466       3.63483
       0.0467       3.62368
       0.0468       3.61261
       0.0469       3.60163
        0.047       3.59072
       0.0471        3.5799
       0.0472       3.56916
       0.0473       3.55849
       0.0474       3.54791
       0.0475        3.5374
       0.0476       3.52697
       0.0477       3.51662
       0.0478       3.50634
       0.0479       3.49614
        0.048       3.48601
       0.0481       3.47596
       0.0482       3.46598
       0.0483       3.45607
       0.0484       3.44624
       0.0485       3.43647
       0.0486       3.42678
       0.0487       3.41716
       0.0488       3.40761
       0.0489       3.39812
        0.049       3.38871
       0.0491       3.37936
       0.0492       3.37008
       0.0493       3.36087
       0.0494       3.35172
       0.0495       3.34264
       0.0496       3.33363
       0.0497       3.32467
       0.0498       3.31579
       0.0499       3.30696
         0.05        3.2982
       0.0501        3.2895
       0.0502       3.28086
       0.0503       3.27228
       0.0504       3.26377
       0.0505       3.25531
       0.0506       3.24691
       0.0507       3.23857
       0.0508       3.23029
       0.0509       3.22207
        0.051        3.2139
       0.0511       3.20579
       0.0512       3.19774
       0.0513       3.18974
       0.0514        3.1818
       0.0515       3.17391
       0.0516       3.16608
       0.0517        3.1583
       0.0518       3.15058
       0.0519        3.1429
        0.052       3.13528
       0.0521       3.12771
       0.0522        3.1202
       0.0523       3.11273
       0.0524       3.10531
       0.0525       3.09795
       0.0526       3.09063
       0.0527       3.08336
       0.0528       3.07614
       0.0529       3.06897
        0.053       3.06185
       0.0531       3.05478
       0.0532       3.04775
       0.0533       3.04077
       0.0534       3.03383
       0.0535       3.02694
       0.0536       3.02009
       0.0537       3.01329
       0.0538       3.00654
       0.0539       2.99983
        0.054       2.99316
       0.0541       2.98653
       0.0542       2.97995
       0.0543       2.97341
       0.0544       2.96691
       0.0545       2.96046
       0.0546       2.95404
       0.0547       2.94767
       0.0548       2.94134
       0.0549       2.93505
        0.055       2.92879
       0.0551       2.92258
       0.0552       2.91641
       0.0553       2.91027
       0.0554       2.90418
       0.0555       2.89812
       0.0556        2.8921
       0.0557       2.88612
       0.0558       2.88017
       0.0559       2.87426
        0.056       2.86839
       0.0561       2.86255
       0.0562       2.85675
       0.0563       2.85099
       0.0564       2.84526
       0.0565       2.83957
       0.0566       2.83391
       0.0567       2.82828
       0.0568       2.82269
       0.0569       2.81713
        0.057       2.81161
       0.0571       2.80612
       0.0572       2.80066
       0.0573       2.79524
       0.0574       2.78985
       0.0575       2.78449
       0.0576       2.77916
       0.0577       2.77386
       0.0578       2.76859
       0.0579       2.76336
        0.058       2.75816
       0.0581       2.75298
       0.0582       2.74784
       0.0583       2.74273
       0.0584       2.73764
       0.0585       2.73259
       0.0586       2.72756
       0.0587       2.72257
       0.0588        2.7176
       0.0589       2.71266
        0.059       2.70775
       0.0591       2.70287
       0.0592       2.69801
       0.0593       2.69318
       0.0594       2.68838
       0.0595       2.68361
       0.0596       2.67887
       0.0597       2.67415
       0.0598       2.66945
       0.0599       2.66479
         0.06       2.66015
       0.0601       2.65553
       0.0602       2.65094
       0.0603       2.64638
       0.0604       2.64184
       0.0605       2.63732
       0.0606       2.63283
       0.0607       2.62837
       0.0608       2.62393
       0.0609       2.61951
        0.061       2.61512
       0.0611       2.61075
       0.0612       2.60641
       0.0613       2.60209
       0.0614       2.59779
       0.0615       2.59351
       0.0616       2.58926
       0.0617       2.58503
       0.0618       2.58082
       0.0619       2.57664
        0.062       2.57247
       0.0621       2.56833
       0.0622       2.56421
       0.0623       2.56012
       0.0624       2.55604
       0.0625       2.55198
       0.0626       2.54795
       0.0627       2.54394
       0.0628       2.53995
       0.0629       2.53597
        0.063       2.53202
       0.0631       2.52809
       0.0632       2.52418
       0.0633       2.52029
       0.0634       2.51642
       0.0635       2.51257
       0.0636       2.50874
       0.0637       2.50492
       0.0638       2.50113
       0.0639       2.49736
        0.064        2.4936
       0.0641       2.48986
       0.0642       2.48615
       0.0643       2.48245
       0.0644       2.47877
       0.0645        2.4751
       0.0646       2.47146
       0.0647       2.46783
       0.0648       2.46422
       0.0649       2.46063
        0.065       2.45706
       0.0651        2.4535
       0.0652       2.44996
       0.0653       2.44644
       0.0654       2.44294
       0.0655       2.43945
       0.0656       2.43598
       0.0657       2.43252
       0.0658       2.42909
       0.0659       2.42566
        0.066       2.42226
       0.0661       2.41887
       0.0662        2.4155
       0.0663       2.41214
       0.0664        2.4088
       0.0665       2.40547
       0.0666       2.40216
       0.0667       2.39887
       0.0668       2.39559
       0.0669       2.39233
        0.067       2.38908
       0.0671       2.38585
       0.0672       2.38263
       0.0673       2.37942
       0.0674       2.37624
       0.0675       2.37306
       0.0676        2.3699
       0.0677       2.36676
       0.0678       2.36363
       0.0679       2.36051
        0.068       2.35741
       0.0681       2.35432
       0.0682       2.35124
       0.0683       2.34818
       0.0684       2.34514
       0.0685        2.3421
       0.0686       2.33908
       0.0687       2.33608
       0.0688       2.33308
       0.0689        2.3301
        0.069       2.32714
       0.0691       2.32418
       0.0692       2.32124
       0.0693       2.31831
       0.0694        2.3154
       0.0695        2.3125
       0.0696       2.30961
       0.0697       2.30673
       0.0698       2.30387
       0.0699       2.30102
         0.07       2.29818
       0.0701       2.29535
       0.0702       2.29253
       0.0703       2.28973
       0.0704       2.28694
       0.0705       2.28416
       0.0706       2.28139
       0.0707       2.27864
       0.0708       2.27589
       0.0709       2.27316
        0.071       2.27044
       0.0711       2.26773
       0.0712       2.26503
       0.0713       2.26235
       0.0714       2.25967
       0.0715       2.25701
       0.0716       2.25435
       0.0717       2.25171
       0.0718       2.24908
       0.0719       2.24646
        0.072       2.24385
       0.0721       2.24125
       0.0722       2.23866
       0.0723       2.23608
       0.0724       2.23352
       0.0725       2.23096
       0.0726       2.22841
       0.0727       2.22588
       0.0728       2.22335
       0.0729       2.22084
        0.073       2.21833
       0.0731       2.21583
       0.0732       2.21335
       0.0733       2.21087
       0.0734       2.20841
       0.0735       2.20595
       0.0736       2.20351
       0.0737       2.20107
       0.0738       2.19864
       0.0739       2.19623
        0.074       2.19382
       0.0741       2.19142
       0.0742       2.18903
       0.0743       2.18665
       0.0744       2.18428
       0.0745       2.18192
       0.0746       2.17957
       0.0747       2.17722
       0.0748       2.17489
       0.0749       2.17257
        0.075       2.17025
       0.0751       2.16794
       0.0752       2.16565
       0.0753       2.16336
       0.0754       2.16108
       0.0755        2.1588
       0.0756       2.15654
       0.0757       2.15429
       0.0758       2.15204
       0.0759        2.1498
        0.076       2.14757
       0.0761       2.14535
       0.0762       2.14314
       0.0763       2.14093
       0.0764       2.13874
       0.0765       2.13655
       0.0766       2.13437
       0.0767        2.1322
       0.0768       2.13003
       0.0769       2.12788
        0.077       2.12573
       0.0771       2.12359
       0.0772       2.12146
       0.0773       2.11933
       0.0774       2.11722
       0.0775       2.11511
       0.0776       2.11301
       0.0777       2.11091
       0.0778       2.10883
       0.0779       2.10675
        0.078       2.10468
       0.0781       2.10262
       0.0782       2.10056
       0.0783       2.09851
       0.0784       2.09647
       0.0785       2.09443
       0.0786       2.09241
       0.0787       2.09039
       0.0788       2.08838
       0.0789       2.08637
        0.079       2.08437
       0.0791       2.08238
       0.0792        2.0804
       0.0793       2.07842
       0.0794       2.07645
       0.0795       2.07448
       0.0796       2.07253
       0.0797       2.07058
       0.0798       2.06863
       0.0799        2.0667
         0.08       2.06477
       0.0801       2.06284
       0.0802       2.06093
       0.0803       2.05902
       0.0804       2.05711
       0.0805       2.05522
       0.0806       2.05333
       0.0807       2.05144
       0.0808       2.04957
       0.0809       2.04769
        0.081       2.04583
       0.0811       2.04397
       0.0812       2.04212
       0.0813       2.04027
       0.0814       2.03843
       0.0815        2.0366
       0.0816       2.03477
       0.0817       2.03295
       0.0818       2.03113
       0.0819       2.02932
        0.082       2.02752
       0.0821       2.02572
       0.0822       2.02393
       0.0823       2.02215
       0.0824       2.02037
       0.0825       2.01859
       0.0826       2.01682
       0.0827       2.01506
       0.0828       2.01331
       0.0829       2.01155
        0.083       2.00981
       0.0831       2.00807
       0.0832       2.00634
       0.0833       2.00461
       0.0834       2.00288
       0.0835       2.00117
       0.0836       1.99946
       0.0837       1.99775
       0.0838       1.99605
       0.0839       1.99435
        0.084       1.99266
       0.0841       1.99098
       0.0842        1.9893
       0.0843       1.98763
       0.0844       1.98596
       0.0845        1.9843
       0.0846       1.98264
       0.0847       1.98098
       0.0848       1.97934
       0.0849       1.97769
        0.085       1.97606
       0.0851       1.97442
       0.0852        1.9728
       0.0853       1.97118
       0.0854       1.96956
       0.0855       1.96795
       0.0856       1.96634
       0.0857       1.96474
       0.0858       1.96314
       0.0859       1.96155
        0.086       1.95996
       0.0861       1.95838
       0.0862        1.9568
       0.0863       1.95523
       0.0864       1.95366
