# Probe 0 (0.05 0.05 0.005)
#       Probe             0
#        Time
       0.0001   1.16461e+09
       0.0002   1.16461e+09
       0.0003   1.16461e+09
       0.0004   1.16461e+09
       0.0005   1.16461e+09
       0.0006   1.16461e+09
       0.0007   1.16461e+09
       0.0008   1.16461e+09
       0.0009    1.1646e+09
        0.001    1.1646e+09
       0.0011    1.1646e+09
       0.0012   1.16459e+09
       0.0013   1.16459e+09
       0.0014   1.16458e+09
       0.0015   1.16457e+09
       0.0016   1.16455e+09
       0.0017   1.16454e+09
       0.0018   1.16452e+09
       0.0019    1.1645e+09
        0.002   1.16447e+09
       0.0021   1.16444e+09
       0.0022    1.1644e+09
       0.0023   1.16436e+09
       0.0024   1.16432e+09
       0.0025   1.16426e+09
       0.0026    1.1642e+09
       0.0027   1.16414e+09
       0.0028   1.16406e+09
       0.0029   1.16398e+09
        0.003   1.16388e+09
       0.0031   1.16378e+09
       0.0032   1.16367e+09
       0.0033   1.16354e+09
       0.0034    1.1634e+09
       0.0035   1.16325e+09
       0.0036   1.16309e+09
       0.0037   1.16291e+09
       0.0038   1.16272e+09
       0.0039   1.16251e+09
        0.004   1.16229e+09
       0.0041   1.16204e+09
       0.0042   1.16178e+09
       0.0043    1.1615e+09
       0.0044    1.1612e+09
       0.0045   1.16087e+09
       0.0046   1.16053e+09
       0.0047   1.16016e+09
       0.0048   1.15976e+09
       0.0049   1.15934e+09
        0.005    1.1589e+09
       0.0051   1.15842e+09
       0.0052   1.15792e+09
       0.0053   1.15739e+09
       0.0054   1.15682e+09
       0.0055   1.15623e+09
       0.0056    1.1556e+09
       0.0057   1.15494e+09
       0.0058   1.15424e+09
       0.0059    1.1535e+09
        0.006   1.15273e+09
       0.0061   1.15191e+09
       0.0062   1.15106e+09
       0.0063   1.15017e+09
       0.0064   1.14923e+09
       0.0065   1.14824e+09
       0.0066   1.14721e+09
       0.0067   1.14614e+09
       0.0068   1.14501e+09
       0.0069   1.14384e+09
        0.007   1.14261e+09
       0.0071   1.14133e+09
       0.0072      1.14e+09
       0.0073   1.13861e+09
       0.0074   1.13717e+09
       0.0075   1.13567e+09
       0.0076    1.1341e+09
       0.0077   1.13248e+09
       0.0078    1.1308e+09
       0.0079   1.12905e+09
        0.008   1.12723e+09
       0.0081   1.12535e+09
       0.0082   1.12341e+09
       0.0083   1.12139e+09
       0.0084    1.1193e+09
       0.0085   1.11714e+09
       0.0086   1.11491e+09
       0.0087    1.1126e+09
       0.0088   1.11022e+09
       0.0089   1.10776e+09
        0.009   1.10522e+09
       0.0091    1.1026e+09
       0.0092    1.0999e+09
       0.0093   1.09712e+09
       0.0094   1.09425e+09
       0.0095    1.0913e+09
       0.0096   1.08826e+09
       0.0097   1.08514e+09
       0.0098   1.08192e+09
       0.0099   1.07862e+09
         0.01   1.07522e+09
       0.0101   1.07174e+09
       0.0102   1.06816e+09
       0.0103   1.06448e+09
       0.0104   1.06071e+09
       0.0105   1.05685e+09
       0.0106   1.05289e+09
       0.0107   1.04883e+09
       0.0108   1.04467e+09
       0.0109   1.04041e+09
        0.011   1.03606e+09
       0.0111    1.0316e+09
       0.0112   1.02704e+09
       0.0113   1.02238e+09
       0.0114   1.01761e+09
       0.0115   1.01275e+09
       0.0116   1.00778e+09
       0.0117    1.0027e+09
       0.0118   9.97527e+08
       0.0119   9.92245e+08
        0.012   9.86859e+08
       0.0121   9.81369e+08
       0.0122   9.75774e+08
       0.0123   9.70074e+08
       0.0124    9.6427e+08
       0.0125   9.58361e+08
       0.0126   9.52349e+08
       0.0127   9.46232e+08
       0.0128   9.40013e+08
       0.0129    9.3369e+08
        0.013   9.27266e+08
       0.0131   9.20739e+08
       0.0132   9.14111e+08
       0.0133   9.07384e+08
       0.0134   9.00556e+08
       0.0135   8.93631e+08
       0.0136   8.86608e+08
       0.0137   8.79488e+08
       0.0138   8.72274e+08
       0.0139   8.64965e+08
        0.014   8.57564e+08
       0.0141   8.50072e+08
       0.0142   8.42491e+08
       0.0143   8.34821e+08
       0.0144   8.27065e+08
       0.0145   8.19225e+08
       0.0146   8.11302e+08
       0.0147   8.03298e+08
       0.0148   7.95216e+08
       0.0149   7.87057e+08
        0.015   7.78824e+08
       0.0151   7.70519e+08
       0.0152   7.62144e+08
       0.0153   7.53701e+08
       0.0154   7.45194e+08
       0.0155   7.36624e+08
       0.0156   7.27995e+08
       0.0157   7.19309e+08
       0.0158   7.10569e+08
       0.0159   7.01777e+08
        0.016   6.92937e+08
       0.0161   6.84051e+08
       0.0162   6.75123e+08
       0.0163   6.66156e+08
       0.0164   6.57153e+08
       0.0165   6.48116e+08
       0.0166    6.3905e+08
       0.0167   6.29957e+08
       0.0168   6.20841e+08
       0.0169   6.11705e+08
        0.017   6.02553e+08
       0.0171   5.93387e+08
       0.0172   5.84212e+08
       0.0173   5.75031e+08
       0.0174   5.65847e+08
       0.0175   5.56665e+08
       0.0176   5.47486e+08
       0.0177   5.38316e+08
       0.0178   5.29157e+08
       0.0179   5.20013e+08
        0.018   5.10887e+08
       0.0181   5.01784e+08
       0.0182   4.92706e+08
       0.0183   4.83657e+08
       0.0184   4.74641e+08
       0.0185   4.65661e+08
       0.0186   4.56719e+08
       0.0187   4.47821e+08
       0.0188   4.38969e+08
       0.0189   4.30166e+08
        0.019   4.21416e+08
       0.0191   4.12722e+08
       0.0192   4.04086e+08
       0.0193   3.95513e+08
       0.0194   3.87005e+08
       0.0195   3.78565e+08
       0.0196   3.70196e+08
       0.0197   3.61901e+08
       0.0198   3.53682e+08
       0.0199   3.45543e+08
         0.02   3.37486e+08
       0.0201   3.29513e+08
       0.0202   3.21627e+08
       0.0203    3.1383e+08
       0.0204   3.06124e+08
       0.0205   2.98512e+08
       0.0206   2.90996e+08
       0.0207   2.83577e+08
       0.0208   2.76258e+08
       0.0209    2.6904e+08
        0.021   2.61924e+08
       0.0211   2.54914e+08
       0.0212   2.48009e+08
       0.0213   2.41211e+08
       0.0214   2.34521e+08
       0.0215   2.27942e+08
       0.0216   2.21472e+08
       0.0217   2.15115e+08
       0.0218   2.08869e+08
       0.0219   2.02737e+08
        0.022   1.96718e+08
       0.0221   1.90813e+08
       0.0222   1.85023e+08
       0.0223   1.79348e+08
       0.0224   1.73787e+08
       0.0225   1.68341e+08
       0.0226   1.63011e+08
       0.0227   1.57795e+08
       0.0228   1.52694e+08
       0.0229   1.47707e+08
        0.023   1.42835e+08
       0.0231   1.38075e+08
       0.0232   1.33429e+08
       0.0233   1.28894e+08
       0.0234   1.24471e+08
       0.0235   1.20159e+08
       0.0236   1.15957e+08
       0.0237   1.11863e+08
       0.0238   1.07877e+08
       0.0239   1.03997e+08
        0.024   1.00223e+08
       0.0241   9.65526e+07
       0.0242   9.29853e+07
       0.0243   8.95196e+07
       0.0244   8.61539e+07
       0.0245   8.28868e+07
       0.0246   7.97168e+07
       0.0247   7.66425e+07
       0.0248   7.36621e+07
       0.0249   7.07741e+07
        0.025   6.79768e+07
       0.0251   6.52686e+07
       0.0252   6.26478e+07
       0.0253   6.01125e+07
       0.0254   5.76612e+07
       0.0255   5.52919e+07
       0.0256    5.3003e+07
       0.0257   5.07926e+07
       0.0258    4.8659e+07
       0.0259   4.66004e+07
        0.026   4.46149e+07
       0.0261   4.27007e+07
       0.0262   4.08561e+07
       0.0263   3.90793e+07
       0.0264   3.73684e+07
       0.0265   3.57217e+07
       0.0266   3.41374e+07
       0.0267   3.26138e+07
       0.0268   3.11491e+07
       0.0269   2.97417e+07
        0.027   2.83897e+07
       0.0271   2.70916e+07
       0.0272   2.58456e+07
       0.0273   2.46502e+07
       0.0274   2.35037e+07
       0.0275   2.24045e+07
       0.0276   2.13511e+07
       0.0277   2.03419e+07
       0.0278   1.93754e+07
       0.0279   1.84503e+07
        0.028   1.75649e+07
       0.0281    1.6718e+07
       0.0282   1.59081e+07
       0.0283   1.51338e+07
       0.0284    1.4394e+07
       0.0285   1.36872e+07
       0.0286   1.30122e+07
       0.0287   1.23678e+07
       0.0288   1.17529e+07
       0.0289   1.11662e+07
        0.029   1.06067e+07
       0.0291   1.00732e+07
       0.0292   9.56468e+06
       0.0293   9.08016e+06
       0.0294   8.61862e+06
       0.0295   8.17909e+06
       0.0296   7.76066e+06
       0.0297   7.36242e+06
       0.0298   6.98349e+06
       0.0299   6.62305e+06
         0.03   6.28027e+06
       0.0301   5.95439e+06
       0.0302   5.64464e+06
       0.0303    5.3503e+06
       0.0304   5.07067e+06
       0.0305   4.80508e+06
       0.0306   4.55288e+06
       0.0307   4.31346e+06
       0.0308   4.08621e+06
       0.0309   3.87056e+06
        0.031   3.66596e+06
       0.0311   3.47189e+06
       0.0312   3.28784e+06
       0.0313   3.11332e+06
       0.0314   2.94788e+06
       0.0315   2.79106e+06
       0.0316   2.64245e+06
       0.0317   2.50163e+06
       0.0318   2.36822e+06
       0.0319   2.24185e+06
        0.032   2.12217e+06
       0.0321   2.00883e+06
       0.0322   1.90152e+06
       0.0323   1.79992e+06
       0.0324   1.70374e+06
       0.0325   1.61272e+06
       0.0326   1.52656e+06
       0.0327   1.44504e+06
       0.0328    1.3679e+06
       0.0329   1.29491e+06
        0.033   1.22586e+06
       0.0331   1.16054e+06
       0.0332   1.09875e+06
       0.0333    1.0403e+06
       0.0334        985021
       0.0335        932738
       0.0336        883293
       0.0337        836531
       0.0338        792310
       0.0339        750492
        0.034        710947
       0.0341        673551
       0.0342        638189
       0.0343        604750
       0.0344        573128
       0.0345        543225
       0.0346        514946
       0.0347        488203
       0.0348        462911
       0.0349        438991
        0.035        416368
       0.0351        394969
       0.0352        374728
       0.0353        355581
       0.0354        337468
       0.0355        320331
       0.0356        304116
       0.0357        288774
       0.0358        274255
       0.0359        260514
        0.036        247508
       0.0361        235197
       0.0362        223542
       0.0363        212507
       0.0364        202058
       0.0365        192162
       0.0366        182790
       0.0367        173912
       0.0368        165501
       0.0369        157531
        0.037        149978
       0.0371        142820
       0.0372        136034
       0.0373        129601
       0.0374        123501
       0.0375        117716
       0.0376        112228
       0.0377        107022
       0.0378        102082
       0.0379       97394.4
        0.038       92944.6
       0.0381       88720.1
       0.0382       84708.9
       0.0383       80899.3
       0.0384       77280.6
       0.0385       73842.6
       0.0386       70575.6
       0.0387       67470.5
       0.0388       64518.7
       0.0389       61712.1
        0.039       59042.9
       0.0391       56503.9
       0.0392       54088.3
       0.0393       51789.6
       0.0394       49601.7
       0.0395       47518.8
       0.0396       45535.3
       0.0397       43646.3
       0.0398       41846.7
       0.0399         40132
         0.04       38497.8
       0.0401         36940
       0.0402       35454.6
       0.0403         34038
       0.0404       32686.8
       0.0405       31397.5
       0.0406       30167.1
       0.0407       28992.6
       0.0408       27871.3
       0.0409       26800.4
        0.041       25777.5
       0.0411       24800.1
       0.0412       23866.2
       0.0413       22973.4
       0.0414       22119.8
       0.0415       21303.5
       0.0416       20522.7
       0.0417       19775.7
       0.0418       19060.7
       0.0419       18376.4
        0.042       17721.2
       0.0421       17093.8
       0.0422       16492.8
       0.0423       15916.9
       0.0424       15365.1
       0.0425       14836.2
       0.0426         14329
       0.0427       13842.7
       0.0428       13376.2
       0.0429       12928.6
        0.043       12499.1
       0.0431       12086.8
       0.0432         11691
       0.0433       11310.8
       0.0434       10945.7
       0.0435       10594.9
       0.0436       10257.8
       0.0437       9933.81
       0.0438        9622.3
       0.0439       9322.75
        0.044       9034.62
       0.0441       8757.43
       0.0442        8490.7
       0.0443       8233.97
       0.0444       7986.83
       0.0445       7748.85
       0.0446       7519.65
       0.0447       7298.85
       0.0448        7086.1
       0.0449       6881.07
        0.045       6683.43
       0.0451       6492.87
       0.0452        6309.1
       0.0453       6131.84
       0.0454       5960.82
       0.0455        5795.8
       0.0456       5636.52
       0.0457       5482.75
       0.0458       5334.28
       0.0459       5190.88
        0.046       5052.37
       0.0461       4918.54
       0.0462       4789.21
       0.0463        4664.2
       0.0464       4543.35
       0.0465       4426.49
       0.0466       4313.47
       0.0467       4204.15
       0.0468       4098.37
       0.0469       3996.01
        0.047       3896.93
       0.0471       3801.02
       0.0472       3708.15
       0.0473       3618.21
       0.0474       3531.08
       0.0475       3446.68
       0.0476       3364.89
       0.0477       3285.62
       0.0478       3208.78
       0.0479       3134.29
        0.048       3062.04
       0.0481       2991.98
       0.0482       2924.01
       0.0483       2858.06
       0.0484       2794.07
       0.0485       2731.96
       0.0486       2671.66
       0.0487       2613.12
       0.0488       2556.27
       0.0489       2501.06
        0.049       2447.42
       0.0491       2395.31
       0.0492       2344.68
       0.0493       2295.46
       0.0494       2247.62
       0.0495       2201.11
       0.0496       2155.89
       0.0497        2111.9
       0.0498       2069.12
       0.0499        2027.5
         0.05          1987
       0.0501        1947.6
       0.0502       1909.24
       0.0503        1871.9
       0.0504       1835.55
       0.0505       1800.15
       0.0506       1765.67
       0.0507       1732.09
       0.0508       1699.38
       0.0509       1667.51
        0.051       1636.45
       0.0511       1606.18
       0.0512       1576.67
       0.0513        1547.9
       0.0514       1519.85
       0.0515        1492.5
       0.0516       1465.82
       0.0517        1439.8
       0.0518       1414.42
       0.0519       1389.65
        0.052       1365.47
       0.0521       1341.88
       0.0522       1318.85
       0.0523       1296.37
       0.0524       1274.42
       0.0525       1252.99
       0.0526       1232.06
       0.0527       1211.61
       0.0528       1191.64
       0.0529       1172.13
        0.053       1153.06
       0.0531       1134.42
       0.0532       1116.21
       0.0533       1098.41
       0.0534       1081.01
       0.0535       1063.99
       0.0536       1047.35
       0.0537       1031.08
       0.0538       1015.17
       0.0539       999.599
        0.054       984.368
       0.0541       969.466
       0.0542       954.884
       0.0543       940.614
       0.0544       926.646
       0.0545       912.974
       0.0546       899.589
       0.0547       886.484
       0.0548       873.652
       0.0549       861.085
        0.055       848.777
       0.0551       836.721
       0.0552       824.911
       0.0553       813.341
       0.0554       802.004
       0.0555       790.894
       0.0556       780.007
       0.0557       769.335
       0.0558       758.875
       0.0559       748.621
        0.056       738.567
       0.0561       728.709
       0.0562       719.042
       0.0563       709.561
       0.0564       700.263
       0.0565       691.142
       0.0566       682.194
       0.0567       673.415
       0.0568       664.802
       0.0569       656.349
        0.057       648.054
       0.0571       639.913
       0.0572       631.922
       0.0573       624.078
       0.0574       616.377
       0.0575       608.816
       0.0576       601.392
       0.0577       594.101
       0.0578       586.941
       0.0579       579.909
        0.058       573.001
       0.0581       566.216
       0.0582        559.55
       0.0583           553
       0.0584       546.565
       0.0585       540.241
       0.0586       534.026
       0.0587       527.918
       0.0588       521.914
       0.0589       516.012
        0.059       510.211
       0.0591       504.507
       0.0592       498.898
       0.0593       493.383
       0.0594        487.96
       0.0595       482.627
       0.0596       477.382
       0.0597       472.222
       0.0598       467.147
       0.0599       462.154
         0.06       457.242
       0.0601       452.408
       0.0602       447.653
       0.0603       442.973
       0.0604       438.367
       0.0605       433.835
       0.0606       429.373
       0.0607       424.982
       0.0608       420.659
       0.0609       416.403
        0.061       412.213
       0.0611       408.087
       0.0612       404.025
       0.0613       400.024
       0.0614       396.085
       0.0615       392.204
       0.0616       388.383
       0.0617       384.618
       0.0618        380.91
       0.0619       377.257
        0.062       373.658
       0.0621       370.112
       0.0622       366.618
       0.0623       363.175
       0.0624       359.783
       0.0625       356.439
       0.0626       353.143
       0.0627       349.895
       0.0628       346.694
       0.0629       343.537
        0.063       340.426
       0.0631       337.359
       0.0632       334.334
       0.0633       331.352
       0.0634       328.412
       0.0635       325.513
       0.0636       322.653
       0.0637       319.833
       0.0638       317.052
       0.0639       314.308
        0.064       311.602
       0.0641       308.933
       0.0642         306.3
       0.0643       303.702
       0.0644       301.138
       0.0645       298.609
       0.0646       296.114
       0.0647       293.651
       0.0648       291.221
       0.0649       288.823
        0.065       286.456
       0.0651        284.12
       0.0652       281.814
       0.0653       279.538
       0.0654       277.291
       0.0655       275.073
       0.0656       272.884
       0.0657       270.722
       0.0658       268.587
       0.0659        266.48
        0.066       264.398
       0.0661       262.343
       0.0662       260.314
       0.0663       258.309
       0.0664        256.33
       0.0665       254.375
       0.0666       252.444
       0.0667       250.536
       0.0668       248.652
       0.0669        246.79
        0.067       244.951
       0.0671       243.134
       0.0672       241.339
       0.0673       239.565
       0.0674       237.813
       0.0675       236.081
       0.0676        234.37
       0.0677       232.678
       0.0678       231.007
       0.0679       229.355
        0.068       227.723
       0.0681       226.109
       0.0682       224.514
       0.0683       222.937
       0.0684       221.378
       0.0685       219.837
       0.0686       218.314
       0.0687       216.808
       0.0688       215.319
       0.0689       213.847
        0.069       212.391
       0.0691       210.952
       0.0692       209.528
       0.0693       208.121
       0.0694       206.728
       0.0695       205.352
       0.0696        203.99
       0.0697       202.643
       0.0698       201.311
       0.0699       199.994
         0.07        198.69
       0.0701       197.401
       0.0702       196.125
       0.0703       194.864
       0.0704       193.615
       0.0705        192.38
       0.0706       191.158
       0.0707       189.949
       0.0708       188.753
       0.0709       187.569
        0.071       186.398
       0.0711       185.238
       0.0712       184.091
       0.0713       182.956
       0.0714       181.832
       0.0715        180.72
       0.0716       179.619
       0.0717        178.53
       0.0718       177.451
       0.0719       176.384
        0.072       175.327
       0.0721       174.281
       0.0722       173.245
       0.0723        172.22
       0.0724       171.205
       0.0725         170.2
       0.0726       169.205
       0.0727        168.22
       0.0728       167.244
       0.0729       166.278
        0.073       165.322
       0.0731       164.375
       0.0732       163.437
       0.0733       162.508
       0.0734       161.588
       0.0735       160.676
       0.0736       159.774
       0.0737        158.88
       0.0738       157.995
       0.0739       157.118
        0.074       156.249
       0.0741       155.389
       0.0742       154.536
       0.0743       153.692
       0.0744       152.855
       0.0745       152.027
       0.0746       151.206
       0.0747       150.392
       0.0748       149.586
       0.0749       148.787
        0.075       147.996
       0.0751       147.212
       0.0752       146.435
       0.0753       145.665
       0.0754       144.902
       0.0755       144.146
       0.0756       143.397
       0.0757       142.655
       0.0758       141.919
       0.0759       141.189
        0.076       140.466
       0.0761        139.75
       0.0762        139.04
       0.0763       138.336
       0.0764       137.638
       0.0765       136.946
       0.0766       136.261
       0.0767       135.581
       0.0768       134.907
       0.0769       134.239
        0.077       133.577
       0.0771        132.92
       0.0772       132.269
       0.0773       131.624
       0.0774       130.984
       0.0775       130.349
       0.0776        129.72
       0.0777       129.097
       0.0778       128.478
       0.0779       127.865
        0.078       127.256
       0.0781       126.653
       0.0782       126.055
       0.0783       125.462
       0.0784       124.873
       0.0785        124.29
       0.0786       123.711
       0.0787       123.137
       0.0788       122.568
       0.0789       122.003
        0.079       121.443
       0.0791       120.887
       0.0792       120.336
       0.0793       119.789
       0.0794       119.247
       0.0795       118.709
       0.0796       118.175
       0.0797       117.646
       0.0798       117.121
       0.0799         116.6
         0.08       116.083
       0.0801        115.57
       0.0802       115.061
       0.0803       114.556
       0.0804       114.055
       0.0805       113.558
       0.0806       113.065
       0.0807       112.575
       0.0808        112.09
       0.0809       111.608
        0.081       111.129
       0.0811       110.655
       0.0812       110.184
       0.0813       109.717
       0.0814       109.253
       0.0815       108.792
       0.0816       108.335
       0.0817       107.882
       0.0818       107.432
       0.0819       106.985
        0.082       106.542
       0.0821       106.102
       0.0822       105.665
       0.0823       105.232
       0.0824       104.801
       0.0825       104.374
       0.0826        103.95
       0.0827       103.529
       0.0828       103.111
       0.0829       102.696
        0.083       102.284
       0.0831       101.875
       0.0832        101.47
       0.0833       101.067
       0.0834       100.666
       0.0835       100.269
       0.0836       99.8749
       0.0837       99.4833
       0.0838       99.0944
       0.0839       98.7084
        0.084       98.3251
       0.0841       97.9444
       0.0842       97.5665
       0.0843       97.1912
       0.0844       96.8185
       0.0845       96.4484
       0.0846       96.0809
       0.0847        95.716
       0.0848       95.3535
       0.0849       94.9936
        0.085       94.6361
       0.0851       94.2811
       0.0852       93.9286
       0.0853       93.5784
       0.0854       93.2306
       0.0855       92.8852
       0.0856       92.5422
       0.0857       92.2014
       0.0858        91.863
       0.0859       91.5268
        0.086       91.1929
       0.0861       90.8612
       0.0862       90.5317
       0.0863       90.2045
       0.0864       89.8794
