# Probe 0 (0.05 0.05 0.005)
#       Probe             0
#        Time
          250   5.79373e-08
          500   9.94113e-07
          750   5.32119e-06
         1000   1.73121e-05
         1250   4.29224e-05
         1500   9.03221e-05
         1750    0.00016935
         2000   0.000291559
         2250   0.000470058
         2500   0.000719276
         2750    0.00105462
         3000    0.00149203
         3250    0.00204734
         3500    0.00273562
         3750    0.00357027
         4000    0.00456208
         4250    0.00571827
         4500    0.00704149
         4750    0.00852899
         5000      0.010172
         5250     0.0119553
         5500     0.0138574
         5750      0.015851
         6000     0.0179041
         6250     0.0199811
         6500     0.0220451
         6750     0.0240595
         7000       0.02599
         7250      0.027807
         7500     0.0294868
         7750     0.0310126
         8000     0.0323751
         8250     0.0335726
         8500     0.0346093
         8750      0.035495
         9000     0.0362428
         9250     0.0368682
         9500     0.0373871
         9750     0.0378152
        10000     0.0381671
        10250     0.0384558
        10500     0.0386926
        10750     0.0388869
        11000     0.0390469
