# Probe 0 (0.05 0.05 0.005)
#       Probe             0
#        Time
          250   2.94212e-05
          500   0.000499634
          750    0.00254244
         1000    0.00724793
         1250     0.0141512
         1500     0.0211952
         1750      0.026747
         2000     0.0305805
         2250     0.0331185
         2500     0.0348074
         2750     0.0359589
         3000     0.0367679
         3250     0.0373535
         3500     0.0377892
         3750     0.0381214
         4000     0.0383802
         4250     0.0385858
         4500     0.0387519
         4750     0.0388881
         5000     0.0390012
