# Probe 0 (0.05 0.05 0.005)
#       Probe             0
#        Time
          250     0.0399999
          500      0.039999
          750     0.0399947
         1000     0.0399827
         1250     0.0399571
         1500     0.0399097
         1750     0.0398306
         2000     0.0397084
         2250     0.0395299
         2500     0.0392807
         2750     0.0389454
         3000      0.038508
         3250     0.0379526
         3500     0.0372644
         3750     0.0364297
         4000     0.0354379
         4250     0.0342817
         4500     0.0329585
         4750      0.031471
         5000      0.029828
         5250     0.0280447
         5500     0.0261426
         5750      0.024149
         6000     0.0220959
         6250     0.0200189
         6500     0.0179549
         6750     0.0159405
         7000       0.01401
         7250     0.0121929
         7500     0.0105132
         7750    0.00898743
         8000    0.00762484
         8250    0.00642741
         8500    0.00539066
         8750    0.00450499
         9000    0.00375715
         9250    0.00313181
         9500    0.00261292
         9750    0.00218481
        10000    0.00183291
        10250     0.0015442
        10500    0.00130743
        10750    0.00111305
        11000   0.000953115
