# Probe 0 (0.05 0.05 0.005)
#       Probe             0
#        Time
          250     0.0399706
          500     0.0395003
          750     0.0374575
         1000     0.0327521
         1250     0.0258488
         1500     0.0188047
         1750     0.0132529
         2000    0.00941953
         2250    0.00688152
         2500    0.00519263
         2750     0.0040411
         3000    0.00323208
         3250    0.00264649
         3500    0.00221082
         3750    0.00187862
         4000    0.00161975
         4250    0.00141414
         4500    0.00124806
         4750    0.00111191
         5000   0.000998806
