# Probe 0 (0.05 0.05 0.005)
#       Probe             0
#        Time
         1000   2.75015e-10
         2000   6.47899e-09
         3000   3.74079e-08
         4000   1.24684e-07
         5000   3.15779e-07
         6000   6.72095e-07
         7000   1.26942e-06
         8000   2.19792e-06
         9000   3.56212e-06
        10000   5.48091e-06
        11000   8.08748e-06
        12000   1.15293e-05
        13000   1.59682e-05
        14000     2.158e-05
        15000   2.85547e-05
        16000   3.70964e-05
        17000   4.74228e-05
        18000   5.97655e-05
        19000   7.43697e-05
        20000   9.14937e-05
        21000   0.000111409
        22000   0.000134399
        23000   0.000160762
        24000   0.000190805
        25000   0.000224848
        26000   0.000263222
        27000   0.000306269
        28000    0.00035434
        29000   0.000407794
        30000      0.000467
        31000   0.000532334
        32000   0.000604176
        33000   0.000682913
        34000   0.000768938
        35000   0.000862642
        36000   0.000964422
        37000    0.00107467
        38000    0.00119379
        39000    0.00132216
        40000    0.00146016
        41000    0.00160819
        42000     0.0017666
        43000    0.00193577
        44000    0.00211602
        45000    0.00230771
        46000    0.00251113
        47000     0.0027266
        48000    0.00295437
        49000    0.00319472
        50000    0.00344785
        51000    0.00371398
        52000    0.00399326
        53000    0.00428585
        54000    0.00459183
        55000    0.00491128
        56000    0.00524422
        57000    0.00559065
        58000    0.00595052
        59000    0.00632374
        60000    0.00671017
        61000    0.00710963
        62000     0.0075219
        63000    0.00794672
        64000    0.00838377
        65000     0.0088327
        66000    0.00929311
        67000    0.00976455
        68000     0.0102465
        69000     0.0107386
        70000     0.0112401
        71000     0.0117504
        72000      0.012269
        73000     0.0127952
        74000     0.0133282
        75000     0.0138674
        76000      0.014412
        77000     0.0149613
        78000     0.0155144
        79000     0.0160706
        80000     0.0166292
        81000     0.0171892
        82000     0.0177499
        83000     0.0183105
        84000     0.0188702
        85000     0.0194282
        86000     0.0199838
        87000     0.0205363
        88000     0.0210848
        89000     0.0216287
        90000     0.0221674
        91000     0.0227001
        92000     0.0232263
        93000     0.0237454
        94000     0.0242568
        95000     0.0247601
        96000     0.0252548
        97000     0.0257404
        98000     0.0262166
        99000     0.0266829
       100000     0.0271392
       101000     0.0275851
       102000     0.0280204
       103000     0.0284449
       104000     0.0288585
       105000      0.029261
       106000     0.0296523
       107000     0.0300324
       108000     0.0304013
       109000      0.030759
       110000     0.0311055
       111000     0.0314408
       112000     0.0317652
       113000     0.0320786
       114000     0.0323812
       115000     0.0326733
       116000     0.0329548
       117000     0.0332261
       118000     0.0334873
       119000     0.0337386
       120000     0.0339803
       121000     0.0342126
       122000     0.0344357
       123000     0.0346499
       124000     0.0348554
       125000     0.0350524
       126000     0.0352413
       127000     0.0354222
       128000     0.0355955
       129000     0.0357614
       130000       0.03592
       131000     0.0360718
       132000     0.0362169
       133000     0.0363556
       134000     0.0364881
       135000     0.0366146
       136000     0.0367355
       137000     0.0368508
       138000     0.0369608
       139000     0.0370658
       140000      0.037166
       141000     0.0372615
       142000     0.0373525
       143000     0.0374393
       144000      0.037522
       145000     0.0376008
       146000     0.0376759
       147000     0.0377475
       148000     0.0378156
       149000     0.0378805
       150000     0.0379424
       151000     0.0380012
       152000     0.0380573
       153000     0.0381107
       154000     0.0381616
       155000       0.03821
       156000     0.0382561
       157000        0.0383
       158000     0.0383419
       159000     0.0383817
       160000     0.0384197
       161000     0.0384559
       162000     0.0384904
       163000     0.0385232
       164000     0.0385546
       165000     0.0385844
       166000     0.0386129
       167000     0.0386401
       168000      0.038666
       169000     0.0386907
       170000     0.0387143
       171000     0.0387368
       172000     0.0387583
       173000     0.0387788
       174000     0.0387985
       175000     0.0388172
       176000     0.0388351
       177000     0.0388522
       178000     0.0388686
       179000     0.0388843
       180000     0.0388993
