# Probe 0 (0.05 0.05 0.005)
#       Probe             0
#        Time
        10000   1.49467e-05
        20000   0.000263355
        30000    0.00135797
        40000    0.00412915
        50000    0.00909923
        60000      0.015758
        70000     0.0226941
        80000     0.0285537
        90000     0.0327638
       100000     0.0354633
       110000     0.0370766
       120000     0.0380059
       130000     0.0385347
       140000     0.0388382
       150000     0.0390171
