# Probe 0 (0.05 0.05 0.005)
#       Probe             0
#        Time
         1000          0.04
         2000          0.04
         3000     0.0399999
         4000     0.0399999
         5000     0.0399997
         6000     0.0399993
         7000     0.0399987
         8000     0.0399978
         9000     0.0399964
        10000     0.0399945
        11000     0.0399919
        12000     0.0399885
        13000      0.039984
        14000     0.0399784
        15000     0.0399714
        16000     0.0399629
        17000     0.0399526
        18000     0.0399402
        19000     0.0399256
        20000     0.0399085
        21000     0.0398886
        22000     0.0398656
        23000     0.0398392
        24000     0.0398092
        25000     0.0397751
        26000     0.0397368
        27000     0.0396937
        28000     0.0396456
        29000     0.0395922
        30000      0.039533
        31000     0.0394676
        32000     0.0393958
        33000     0.0393171
        34000      0.039231
        35000     0.0391373
        36000     0.0390356
        37000     0.0389253
        38000     0.0388062
        39000     0.0386778
        40000     0.0385398
        41000     0.0383918
        42000     0.0382334
        43000     0.0380642
        44000      0.037884
        45000     0.0376923
        46000     0.0374889
        47000     0.0372734
        48000     0.0370456
        49000     0.0368053
        50000     0.0365521
        51000      0.036286
        52000     0.0360067
        53000     0.0357141
        54000     0.0354082
        55000     0.0350887
        56000     0.0347558
        57000     0.0344093
        58000     0.0340495
        59000     0.0336762
        60000     0.0332898
        61000     0.0328904
        62000     0.0324781
        63000     0.0320533
        64000     0.0316162
        65000     0.0311673
        66000     0.0307069
        67000     0.0302354
        68000     0.0297534
        69000     0.0292614
        70000     0.0287599
        71000     0.0282496
        72000      0.027731
        73000     0.0272048
        74000     0.0266718
        75000     0.0261326
        76000      0.025588
        77000     0.0250387
        78000     0.0244856
        79000     0.0239293
        80000     0.0233708
        81000     0.0228108
        82000     0.0222501
        83000     0.0216895
        84000     0.0211298
        85000     0.0205717
        86000     0.0200161
        87000     0.0194637
        88000     0.0189152
        89000     0.0183713
        90000     0.0178326
        91000     0.0172999
        92000     0.0167737
        93000     0.0162546
        94000     0.0157431
        95000     0.0152399
        96000     0.0147452
        97000     0.0142596
        98000     0.0137834
        99000      0.013317
       100000     0.0128608
       101000     0.0124149
       102000     0.0119796
       103000      0.011555
       104000     0.0111415
       105000      0.010739
       106000     0.0103477
       107000    0.00996756
       108000    0.00959867
       109000      0.009241
       110000    0.00889452
       111000    0.00855915
       112000    0.00823481
       113000    0.00792139
       114000    0.00761874
       115000    0.00732673
       116000    0.00704517
       117000     0.0067739
       118000    0.00651269
       119000    0.00626135
       120000    0.00601966
       121000    0.00578738
       122000    0.00556428
       123000     0.0053501
       124000    0.00514462
       125000    0.00494757
       126000     0.0047587
       127000    0.00457775
       128000    0.00440448
       129000    0.00423863
       130000    0.00407994
       131000    0.00392817
       132000    0.00378306
       133000    0.00364439
       134000    0.00351189
       135000    0.00338535
       136000    0.00326453
       137000     0.0031492
       138000    0.00303915
       139000    0.00293416
       140000    0.00283402
       141000    0.00273852
       142000    0.00264748
       143000     0.0025607
       144000    0.00247799
       145000    0.00239917
       146000    0.00232407
       147000    0.00225253
       148000    0.00218437
       149000    0.00211946
       150000    0.00205763
       151000    0.00199875
       152000    0.00194268
       153000    0.00188928
       154000    0.00183843
       155000       0.00179
       156000    0.00174388
       157000    0.00169995
       158000    0.00165811
       159000    0.00161825
       160000    0.00158028
       161000    0.00154409
       162000    0.00150962
       163000    0.00147676
       164000    0.00144543
       165000    0.00141557
       166000    0.00138709
       167000    0.00135993
       168000    0.00133402
       169000     0.0013093
       170000    0.00128571
       171000    0.00126319
       172000    0.00124168
       173000    0.00122115
       174000    0.00120153
       175000    0.00118279
       176000    0.00116487
       177000    0.00114774
       178000    0.00113137
       179000     0.0011157
       180000    0.00110071
