# Probe 0 (0.05 0.05 0.005)
#       Probe             0
#        Time
        10000      0.039985
        20000     0.0397366
        30000      0.038642
        40000     0.0358708
        50000     0.0309008
        60000      0.024242
        70000     0.0173059
        80000     0.0114463
        90000    0.00723623
       100000    0.00453668
       110000    0.00292341
       120000    0.00199409
       130000    0.00146528
       140000    0.00116181
       150000   0.000982875
