# Probe 0 (0.05 0.05 0.005)
#       Probe             0
#        Time
          0.5    4.7567e-16
            1   8.28508e-15
          1.5   4.36611e-14
            2   1.41467e-13
          2.5   3.50224e-13
            3   7.36757e-13
          3.5   1.38216e-12
            4   2.38293e-12
          4.5   3.85096e-12
            5   5.91352e-12
          5.5   8.71331e-12
            6   1.24084e-11
          6.5   1.71723e-11
            7   2.31938e-11
          7.5   3.06773e-11
            8   3.98423e-11
          8.5   5.09241e-11
            9   6.41729e-11
          9.5   7.98548e-11
           10   9.82509e-11
         10.5   1.19658e-10
           11   1.44388e-10
         11.5   1.72768e-10
           12   2.05142e-10
         12.5   2.41867e-10
           13   2.83318e-10
         13.5   3.29882e-10
           14   3.81965e-10
         14.5   4.39987e-10
           15   5.04383e-10
         15.5   5.75602e-10
           16   6.54112e-10
         16.5   7.40394e-10
           17   8.34945e-10
         17.5   9.38276e-10
           18   1.05092e-09
         18.5   1.17341e-09
           19   1.30631e-09
         19.5   1.45019e-09
           20   1.60565e-09
         20.5   1.77329e-09
           21   1.95372e-09
         21.5   2.14759e-09
           22   2.35553e-09
         22.5   2.57823e-09
           23   2.81637e-09
         23.5   3.07062e-09
           24   3.34172e-09
         24.5   3.63039e-09
           25   3.93737e-09
         25.5   4.26343e-09
           26   4.60932e-09
         26.5   4.97585e-09
           27   5.36382e-09
         27.5   5.77405e-09
           28   6.20737e-09
         28.5   6.66463e-09
           29   7.14671e-09
         29.5   7.65448e-09
           30   8.18884e-09
         30.5   8.75071e-09
           31     9.341e-09
         31.5   9.96067e-09
           32   1.06107e-08
         32.5    1.1292e-08
           33   1.20056e-08
         33.5   1.27525e-08
           34   1.35337e-08
         34.5   1.43503e-08
           35   1.52033e-08
         35.5   1.60938e-08
           36   1.70228e-08
         36.5   1.79915e-08
           37    1.9001e-08
         37.5   2.00523e-08
           38   2.11467e-08
         38.5   2.22853e-08
           39   2.34692e-08
         39.5   2.46998e-08
           40    2.5978e-08
         40.5   2.73053e-08
           41   2.86828e-08
         41.5   3.01118e-08
           42   3.15935e-08
         42.5   3.31292e-08
           43   3.47203e-08
         43.5    3.6368e-08
           44   3.80736e-08
         44.5   3.98386e-08
           45   4.16642e-08
         45.5   4.35519e-08
           46    4.5503e-08
         46.5   4.75189e-08
           47   4.96011e-08
         47.5   5.17509e-08
           48     5.397e-08
         48.5   5.62596e-08
           49   5.86213e-08
         49.5   6.10566e-08
           50    6.3567e-08
         50.5    6.6154e-08
           51   6.88193e-08
         51.5   7.15642e-08
           52   7.43905e-08
         52.5   7.72996e-08
           53   8.02933e-08
         53.5    8.3373e-08
           54   8.65406e-08
         54.5   8.97975e-08
           55   9.31456e-08
         55.5   9.65863e-08
           56   1.00122e-07
         56.5   1.03753e-07
           57   1.07482e-07
         57.5   1.11311e-07
           58   1.15242e-07
         58.5   1.19275e-07
           59   1.23414e-07
         59.5   1.27659e-07
           60   1.32013e-07
         60.5   1.36477e-07
           61   1.41054e-07
         61.5   1.45745e-07
           62   1.50551e-07
         62.5   1.55476e-07
           63   1.60521e-07
         63.5   1.65687e-07
           64   1.70977e-07
         64.5   1.76393e-07
           65   1.81936e-07
         65.5   1.87609e-07
           66   1.93414e-07
         66.5   1.99352e-07
           67   2.05426e-07
         67.5   2.11638e-07
           68    2.1799e-07
         68.5   2.24483e-07
           69   2.31121e-07
         69.5   2.37904e-07
           70   2.44836e-07
         70.5   2.51919e-07
           71   2.59153e-07
         71.5   2.66543e-07
           72   2.74089e-07
         72.5   2.81795e-07
           73   2.89662e-07
         73.5   2.97693e-07
           74   3.05889e-07
         74.5   3.14253e-07
           75   3.22788e-07
         75.5   3.31496e-07
           76   3.40378e-07
         76.5   3.49438e-07
           77   3.58677e-07
         77.5   3.68099e-07
           78   3.77705e-07
         78.5   3.87498e-07
           79   3.97479e-07
         79.5   4.07653e-07
           80   4.18021e-07
         80.5   4.28585e-07
           81   4.39348e-07
         81.5   4.50312e-07
           82   4.61481e-07
         82.5   4.72855e-07
           83   4.84439e-07
         83.5   4.96235e-07
           84   5.08244e-07
         84.5   5.20471e-07
           85   5.32916e-07
         85.5   5.45583e-07
           86   5.58475e-07
         86.5   5.71594e-07
           87   5.84943e-07
         87.5   5.98524e-07
           88    6.1234e-07
         88.5   6.26395e-07
           89   6.40689e-07
         89.5   6.55227e-07
           90   6.70011e-07
         90.5   6.85044e-07
           91   7.00328e-07
         91.5   7.15867e-07
           92   7.31663e-07
         92.5   7.47718e-07
           93   7.64037e-07
         93.5   7.80621e-07
           94   7.97474e-07
         94.5   8.14598e-07
           95   8.31997e-07
         95.5   8.49672e-07
           96   8.67628e-07
         96.5   8.85867e-07
           97   9.04392e-07
         97.5   9.23206e-07
           98   9.42312e-07
         98.5   9.61713e-07
           99   9.81412e-07
         99.5   1.00141e-06
          100   1.02172e-06
        100.5   1.04233e-06
          101   1.06325e-06
        101.5   1.08448e-06
          102   1.10604e-06
        102.5   1.12791e-06
          103    1.1501e-06
        103.5   1.17262e-06
          104   1.19547e-06
        104.5   1.21865e-06
          105   1.24217e-06
        105.5   1.26602e-06
          106   1.29022e-06
        106.5   1.31476e-06
          107   1.33965e-06
        107.5    1.3649e-06
          108   1.39049e-06
        108.5   1.41645e-06
          109   1.44277e-06
        109.5   1.46945e-06
          110    1.4965e-06
        110.5   1.52392e-06
          111   1.55172e-06
        111.5    1.5799e-06
          112   1.60846e-06
        112.5    1.6374e-06
          113   1.66674e-06
        113.5   1.69646e-06
          114   1.72658e-06
        114.5    1.7571e-06
          115   1.78803e-06
        115.5   1.81935e-06
          116   1.85109e-06
        116.5   1.88325e-06
          117   1.91582e-06
        117.5   1.94881e-06
          118   1.98222e-06
        118.5   2.01606e-06
          119   2.05034e-06
        119.5   2.08505e-06
          120    2.1202e-06
        120.5   2.15579e-06
          121   2.19182e-06
        121.5   2.22831e-06
          122   2.26525e-06
        122.5   2.30265e-06
          123    2.3405e-06
        123.5   2.37883e-06
          124   2.41762e-06
        124.5   2.45688e-06
          125   2.49662e-06
        125.5   2.53685e-06
          126   2.57755e-06
        126.5   2.61874e-06
          127   2.66043e-06
        127.5   2.70261e-06
          128   2.74529e-06
        128.5   2.78847e-06
          129   2.83216e-06
        129.5   2.87636e-06
          130   2.92108e-06
        130.5   2.96632e-06
          131   3.01207e-06
        131.5   3.05836e-06
          132   3.10518e-06
        132.5   3.15253e-06
          133   3.20043e-06
        133.5   3.24886e-06
          134   3.29785e-06
        134.5   3.34738e-06
          135   3.39748e-06
        135.5   3.44813e-06
          136   3.49934e-06
        136.5   3.55113e-06
          137   3.60349e-06
        137.5   3.65642e-06
          138   3.70993e-06
        138.5   3.76403e-06
          139   3.81872e-06
        139.5   3.87401e-06
          140   3.92989e-06
        140.5   3.98637e-06
          141   4.04346e-06
        141.5   4.10116e-06
          142   4.15948e-06
        142.5   4.21841e-06
          143   4.27797e-06
        143.5   4.33816e-06
          144   4.39898e-06
        144.5   4.46044e-06
          145   4.52254e-06
        145.5   4.58528e-06
          146   4.64868e-06
        146.5   4.71273e-06
          147   4.77744e-06
        147.5   4.84282e-06
          148   4.90886e-06
        148.5   4.97558e-06
          149   5.04297e-06
        149.5   5.11105e-06
          150   5.17981e-06
        150.5   5.24926e-06
          151   5.31941e-06
        151.5   5.39026e-06
          152   5.46182e-06
        152.5   5.53408e-06
          153   5.60706e-06
        153.5   5.68076e-06
          154   5.75519e-06
        154.5   5.83034e-06
          155   5.90622e-06
        155.5   5.98285e-06
          156   6.06021e-06
        156.5   6.13833e-06
          157   6.21719e-06
        157.5   6.29682e-06
          158    6.3772e-06
        158.5   6.45836e-06
          159   6.54028e-06
        159.5   6.62298e-06
          160   6.70647e-06
        160.5   6.79074e-06
          161    6.8758e-06
        161.5   6.96166e-06
          162   7.04832e-06
        162.5   7.13578e-06
          163   7.22406e-06
        163.5   7.31315e-06
          164   7.40306e-06
        164.5    7.4938e-06
          165   7.58538e-06
        165.5   7.67778e-06
          166   7.77103e-06
        166.5   7.86513e-06
          167   7.96008e-06
        167.5   8.05588e-06
          168   8.15255e-06
        168.5   8.25008e-06
          169   8.34849e-06
        169.5   8.44777e-06
          170   8.54794e-06
        170.5   8.64899e-06
          171   8.75094e-06
        171.5   8.85378e-06
          172   8.95753e-06
        172.5   9.06218e-06
          173   9.16776e-06
        173.5   9.27425e-06
          174   9.38166e-06
        174.5      9.49e-06
          175   9.59928e-06
        175.5   9.70951e-06
          176   9.82067e-06
        176.5   9.93279e-06
          177   1.00459e-05
        177.5   1.01599e-05
          178   1.02749e-05
        178.5   1.03909e-05
          179   1.05078e-05
        179.5   1.06258e-05
          180   1.07447e-05
        180.5   1.08646e-05
          181   1.09856e-05
        181.5   1.11075e-05
          182   1.12304e-05
        182.5   1.13544e-05
          183   1.14794e-05
        183.5   1.16054e-05
          184   1.17324e-05
        184.5   1.18605e-05
          185   1.19897e-05
        185.5   1.21198e-05
          186   1.22511e-05
        186.5   1.23834e-05
          187   1.25168e-05
        187.5   1.26512e-05
          188   1.27867e-05
        188.5   1.29233e-05
          189    1.3061e-05
        189.5   1.31998e-05
          190   1.33397e-05
        190.5   1.34807e-05
          191   1.36228e-05
        191.5   1.37661e-05
          192   1.39105e-05
        192.5    1.4056e-05
          193   1.42026e-05
        193.5   1.43504e-05
          194   1.44993e-05
        194.5   1.46494e-05
          195   1.48006e-05
        195.5    1.4953e-05
          196   1.51066e-05
        196.5   1.52614e-05
          197   1.54173e-05
        197.5   1.55745e-05
          198   1.57328e-05
        198.5   1.58924e-05
          199   1.60531e-05
        199.5   1.62151e-05
          200   1.63783e-05
        200.5   1.65427e-05
          201   1.67084e-05
        201.5   1.68752e-05
          202   1.70434e-05
        202.5   1.72128e-05
          203   1.73834e-05
        203.5   1.75553e-05
          204   1.77285e-05
        204.5    1.7903e-05
          205   1.80787e-05
        205.5   1.82558e-05
          206   1.84341e-05
        206.5   1.86137e-05
          207   1.87947e-05
        207.5   1.89769e-05
          208   1.91605e-05
        208.5   1.93454e-05
          209   1.95316e-05
        209.5   1.97192e-05
          210   1.99081e-05
        210.5   2.00984e-05
          211   2.02901e-05
        211.5   2.04831e-05
          212   2.06774e-05
        212.5   2.08732e-05
          213   2.10703e-05
        213.5   2.12689e-05
          214   2.14688e-05
        214.5   2.16701e-05
          215   2.18729e-05
        215.5    2.2077e-05
          216   2.22826e-05
        216.5   2.24897e-05
          217   2.26981e-05
        217.5    2.2908e-05
          218   2.31194e-05
        218.5   2.33322e-05
          219   2.35464e-05
        219.5   2.37622e-05
          220   2.39794e-05
        220.5   2.41981e-05
          221   2.44183e-05
        221.5     2.464e-05
          222   2.48632e-05
        222.5   2.50879e-05
          223   2.53142e-05
        223.5   2.55419e-05
          224   2.57712e-05
        224.5    2.6002e-05
          225   2.62344e-05
        225.5   2.64683e-05
          226   2.67038e-05
        226.5   2.69408e-05
          227   2.71795e-05
        227.5   2.74197e-05
          228   2.76614e-05
        228.5   2.79048e-05
          229   2.81498e-05
        229.5   2.83964e-05
          230   2.86446e-05
        230.5   2.88944e-05
          231   2.91459e-05
        231.5   2.93989e-05
          232   2.96537e-05
        232.5     2.991e-05
          233   3.01681e-05
        233.5   3.04278e-05
          234   3.06891e-05
        234.5   3.09522e-05
          235   3.12169e-05
        235.5   3.14833e-05
          236   3.17515e-05
        236.5   3.20213e-05
          237   3.22928e-05
        237.5   3.25661e-05
          238   3.28411e-05
        238.5   3.31178e-05
          239   3.33963e-05
        239.5   3.36765e-05
          240   3.39585e-05
        240.5   3.42422e-05
          241   3.45277e-05
        241.5    3.4815e-05
          242   3.51041e-05
        242.5    3.5395e-05
          243   3.56876e-05
        243.5   3.59821e-05
          244   3.62784e-05
        244.5   3.65765e-05
          245   3.68765e-05
        245.5   3.71783e-05
          246   3.74819e-05
        246.5   3.77874e-05
          247   3.80947e-05
        247.5   3.84039e-05
          248    3.8715e-05
        248.5    3.9028e-05
          249   3.93428e-05
        249.5   3.96596e-05
          250   3.99783e-05
        250.5   4.02988e-05
          251   4.06213e-05
        251.5   4.09458e-05
          252   4.12721e-05
        252.5   4.16004e-05
          253   4.19307e-05
        253.5   4.22629e-05
          254   4.25971e-05
        254.5   4.29332e-05
          255   4.32714e-05
        255.5   4.36115e-05
          256   4.39536e-05
        256.5   4.42977e-05
          257   4.46439e-05
        257.5    4.4992e-05
          258   4.53422e-05
        258.5   4.56944e-05
          259   4.60487e-05
        259.5    4.6405e-05
          260   4.67634e-05
        260.5   4.71238e-05
          261   4.74864e-05
        261.5    4.7851e-05
          262   4.82177e-05
        262.5   4.85864e-05
          263   4.89573e-05
        263.5   4.93304e-05
          264   4.97055e-05
        264.5   5.00828e-05
          265   5.04622e-05
        265.5   5.08437e-05
          266   5.12274e-05
        266.5   5.16133e-05
          267   5.20013e-05
        267.5   5.23916e-05
          268    5.2784e-05
        268.5   5.31786e-05
          269   5.35754e-05
        269.5   5.39744e-05
          270   5.43756e-05
        270.5   5.47791e-05
          271   5.51848e-05
        271.5   5.55927e-05
          272   5.60029e-05
        272.5   5.64153e-05
          273   5.68301e-05
        273.5    5.7247e-05
          274   5.76663e-05
        274.5   5.80879e-05
          275   5.85118e-05
        275.5    5.8938e-05
          276   5.93664e-05
        276.5   5.97973e-05
          277   6.02304e-05
        277.5   6.06659e-05
          278   6.11038e-05
        278.5    6.1544e-05
          279   6.19866e-05
        279.5   6.24315e-05
          280   6.28789e-05
        280.5   6.33286e-05
          281   6.37807e-05
        281.5   6.42353e-05
          282   6.46922e-05
        282.5   6.51516e-05
          283   6.56134e-05
        283.5   6.60777e-05
          284   6.65444e-05
        284.5   6.70136e-05
          285   6.74852e-05
        285.5   6.79594e-05
          286    6.8436e-05
        286.5   6.89151e-05
          287   6.93967e-05
        287.5   6.98808e-05
          288   7.03674e-05
        288.5   7.08566e-05
          289   7.13483e-05
        289.5   7.18425e-05
          290   7.23393e-05
        290.5   7.28387e-05
          291   7.33407e-05
        291.5   7.38452e-05
          292   7.43523e-05
        292.5    7.4862e-05
          293   7.53743e-05
        293.5   7.58892e-05
          294   7.64068e-05
        294.5    7.6927e-05
          295   7.74498e-05
        295.5   7.79753e-05
          296   7.85034e-05
        296.5   7.90343e-05
          297   7.95677e-05
        297.5   8.01039e-05
          298   8.06428e-05
        298.5   8.11844e-05
          299   8.17286e-05
        299.5   8.22757e-05
          300   8.28254e-05
        300.5   8.33779e-05
          301   8.39331e-05
        301.5   8.44911e-05
          302   8.50518e-05
        302.5   8.56154e-05
          303   8.61817e-05
        303.5   8.67508e-05
          304   8.73227e-05
        304.5   8.78974e-05
          305   8.84749e-05
        305.5   8.90553e-05
          306   8.96385e-05
        306.5   9.02246e-05
          307   9.08135e-05
        307.5   9.14053e-05
          308   9.19999e-05
        308.5   9.25975e-05
          309   9.31979e-05
        309.5   9.38012e-05
          310   9.44075e-05
        310.5   9.50166e-05
          311   9.56287e-05
        311.5   9.62438e-05
          312   9.68617e-05
        312.5   9.74827e-05
          313   9.81066e-05
        313.5   9.87335e-05
          314   9.93634e-05
        314.5   9.99962e-05
          315   0.000100632
        315.5   0.000101271
          316   0.000101913
        316.5   0.000102558
          317   0.000103206
        317.5   0.000103857
          318   0.000104511
        318.5   0.000105168
          319   0.000105828
        319.5   0.000106492
          320   0.000107158
        320.5   0.000107828
          321     0.0001085
        321.5   0.000109176
          322   0.000109855
        322.5   0.000110537
          323   0.000111222
        323.5   0.000111911
          324   0.000112602
        324.5   0.000113297
          325   0.000113995
        325.5   0.000114696
          326     0.0001154
        326.5   0.000116108
          327   0.000116819
        327.5   0.000117533
          328    0.00011825
        328.5    0.00011897
          329   0.000119694
        329.5   0.000120421
          330   0.000121152
        330.5   0.000121885
          331   0.000122622
        331.5   0.000123363
          332   0.000124106
        332.5   0.000124853
          333   0.000125604
        333.5   0.000126357
          334   0.000127114
        334.5   0.000127875
          335   0.000128639
        335.5   0.000129406
          336   0.000130176
        336.5    0.00013095
          337   0.000131728
        337.5   0.000132509
          338   0.000133293
        338.5   0.000134081
          339   0.000134872
        339.5   0.000135667
          340   0.000136465
        340.5   0.000137267
          341   0.000138072
        341.5   0.000138881
          342   0.000139693
        342.5   0.000140509
          343   0.000141328
        343.5   0.000142151
          344   0.000142977
        344.5   0.000143807
          345   0.000144641
        345.5   0.000145478
          346   0.000146319
        346.5   0.000147163
          347   0.000148011
        347.5   0.000148863
          348   0.000149718
        348.5   0.000150577
          349    0.00015144
        349.5   0.000152306
          350   0.000153176
        350.5    0.00015405
          351   0.000154927
        351.5   0.000155809
          352   0.000156693
        352.5   0.000157582
          353   0.000158474
        353.5    0.00015937
          354    0.00016027
        354.5   0.000161174
          355   0.000162081
        355.5   0.000162992
          356   0.000163907
        356.5   0.000164826
          357   0.000165749
        357.5   0.000166675
          358   0.000167606
        358.5    0.00016854
          359   0.000169478
        359.5    0.00017042
          360   0.000171366
        360.5   0.000172316
          361   0.000173269
        361.5   0.000174227
          362   0.000175188
        362.5   0.000176154
          363   0.000177123
        363.5   0.000178096
          364   0.000179074
        364.5   0.000180055
          365    0.00018104
        365.5    0.00018203
          366   0.000183023
        366.5    0.00018402
          367   0.000185022
        367.5   0.000186027
          368   0.000187037
        368.5    0.00018805
          369   0.000189068
        369.5    0.00019009
          370   0.000191115
        370.5   0.000192145
          371   0.000193179
        371.5   0.000194218
          372    0.00019526
        372.5   0.000196306
          373   0.000197357
        373.5   0.000198412
          374   0.000199471
        374.5   0.000200534
          375   0.000201601
        375.5   0.000202673
          376   0.000203749
        376.5   0.000204829
          377   0.000205913
        377.5   0.000207002
          378   0.000208095
        378.5   0.000209192
          379   0.000210293
        379.5   0.000211399
          380   0.000212509
        380.5   0.000213623
          381   0.000214742
        381.5   0.000215865
          382   0.000216992
        382.5   0.000218124
          383    0.00021926
        383.5   0.000220401
          384   0.000221545
        384.5   0.000222695
          385   0.000223849
        385.5   0.000225007
          386   0.000226169
        386.5   0.000227336
          387   0.000228508
        387.5   0.000229684
          388   0.000230864
        388.5   0.000232049
          389   0.000233239
        389.5   0.000234433
          390   0.000235631
        390.5   0.000236834
          391   0.000238042
        391.5   0.000239254
          392   0.000240471
        392.5   0.000241692
          393   0.000242918
        393.5   0.000244148
          394   0.000245384
        394.5   0.000246623
          395   0.000247868
        395.5   0.000249117
          396    0.00025037
        396.5   0.000251629
          397   0.000252892
        397.5    0.00025416
          398   0.000255432
        398.5   0.000256709
          399   0.000257991
        399.5   0.000259278
          400   0.000260569
        400.5   0.000261865
          401   0.000263166
        401.5   0.000264472
          402   0.000265782
        402.5   0.000267098
          403   0.000268418
        403.5   0.000269743
          404   0.000271072
        404.5   0.000272407
          405   0.000273746
        405.5   0.000275091
          406    0.00027644
        406.5   0.000277794
          407   0.000279153
        407.5   0.000280517
          408   0.000281886
        408.5    0.00028326
          409   0.000284638
        409.5   0.000286022
          410   0.000287411
        410.5   0.000288804
          411   0.000290203
        411.5   0.000291607
          412   0.000293015
        412.5   0.000294429
          413   0.000295848
        413.5   0.000297272
          414     0.0002987
        414.5   0.000300134
          415   0.000301573
        415.5   0.000303017
          416   0.000304467
        416.5   0.000305921
          417    0.00030738
        417.5   0.000308845
          418   0.000310315
        418.5    0.00031179
          419    0.00031327
        419.5   0.000314755
          420   0.000316245
        420.5   0.000317741
          421   0.000319242
        421.5   0.000320748
          422   0.000322259
        422.5   0.000323776
          423   0.000325298
        423.5   0.000326825
          424   0.000328358
        424.5   0.000329895
          425   0.000331438
        425.5   0.000332987
          426    0.00033454
        426.5     0.0003361
          427   0.000337664
        427.5   0.000339234
          428   0.000340809
        428.5   0.000342389
          429   0.000343975
        429.5   0.000345567
          430   0.000347164
        430.5   0.000348766
          431   0.000350373
        431.5   0.000351987
          432   0.000353605
        432.5   0.000355229
          433   0.000356859
        433.5   0.000358494
          434   0.000360135
        434.5   0.000361781
          435   0.000363432
        435.5    0.00036509
          436   0.000366752
        436.5   0.000368421
          437   0.000370095
        437.5   0.000371774
          438    0.00037346
        438.5    0.00037515
          439   0.000376847
        439.5   0.000378549
          440   0.000380257
        440.5    0.00038197
          441   0.000383689
        441.5   0.000385414
          442   0.000387144
        442.5    0.00038888
          443   0.000390622
        443.5    0.00039237
          444   0.000394123
        444.5   0.000395882
          445   0.000397647
        445.5   0.000399418
          446   0.000401195
        446.5   0.000402977
          447   0.000404765
        447.5   0.000406559
          448   0.000408359
        448.5   0.000410165
          449   0.000411976
        449.5   0.000413793
          450   0.000415617
        450.5   0.000417446
          451   0.000419281
        451.5   0.000421122
          452   0.000422969
        452.5   0.000424822
          453   0.000426681
        453.5   0.000428546
          454   0.000430417
        454.5   0.000432293
          455   0.000434176
        455.5   0.000436065
          456    0.00043796
        456.5   0.000439861
          457   0.000441768
        457.5   0.000443681
          458     0.0004456
        458.5   0.000447525
          459   0.000449456
        459.5   0.000451394
          460   0.000453337
        460.5   0.000455287
          461   0.000457243
        461.5   0.000459205
          462   0.000461173
        462.5   0.000463147
          463   0.000465128
        463.5   0.000467115
          464   0.000469108
        464.5   0.000471107
          465   0.000473112
        465.5   0.000475124
          466   0.000477142
        466.5   0.000479166
          467   0.000481196
        467.5   0.000483233
          468   0.000485276
        468.5   0.000487326
          469   0.000489382
        469.5   0.000491444
          470   0.000493512
        470.5   0.000495587
          471   0.000497668
        471.5   0.000499756
          472    0.00050185
        472.5    0.00050395
          473   0.000506057
        473.5    0.00050817
          474    0.00051029
        474.5   0.000512416
          475   0.000514549
        475.5   0.000516688
          476   0.000518834
        476.5   0.000520986
          477   0.000523145
        477.5    0.00052531
          478   0.000527482
        478.5   0.000529661
          479   0.000531845
        479.5   0.000534037
          480   0.000536235
        480.5    0.00053844
          481   0.000540651
        481.5   0.000542869
          482   0.000545094
        482.5   0.000547325
          483   0.000549563
        483.5   0.000551808
          484   0.000554059
        484.5   0.000556317
          485   0.000558582
        485.5   0.000560853
          486   0.000563131
        486.5   0.000565416
          487   0.000567708
        487.5   0.000570007
          488   0.000572312
        488.5   0.000574624
          489   0.000576943
        489.5   0.000579268
          490   0.000581601
        490.5    0.00058394
          491   0.000586286
        491.5   0.000588639
          492   0.000590999
        492.5   0.000593366
          493    0.00059574
        493.5   0.000598121
          494   0.000600508
        494.5   0.000602903
          495   0.000605304
        495.5   0.000607713
          496   0.000610128
        496.5   0.000612551
          497    0.00061498
        497.5   0.000617416
          498    0.00061986
        498.5    0.00062231
          499   0.000624768
        499.5   0.000627232
          500   0.000629704
        500.5   0.000632183
          501   0.000634668
        501.5   0.000637161
          502   0.000639661
        502.5   0.000642168
          503   0.000644683
        503.5   0.000647204
          504   0.000649733
        504.5   0.000652268
          505   0.000654811
        505.5   0.000657362
          506   0.000659919
        506.5   0.000662483
          507   0.000665055
        507.5   0.000667634
          508   0.000670221
        508.5   0.000672814
          509   0.000675415
        509.5   0.000678023
          510   0.000680639
        510.5   0.000683261
          511   0.000685891
        511.5   0.000688529
          512   0.000691174
        512.5   0.000693826
          513   0.000696485
        513.5   0.000699152
          514   0.000701827
        514.5   0.000704508
          515   0.000707197
        515.5   0.000709894
          516   0.000712598
        516.5   0.000715309
          517   0.000718028
        517.5   0.000720755
          518   0.000723489
        518.5    0.00072623
          519   0.000728979
        519.5   0.000731735
          520   0.000734499
        520.5   0.000737271
          521    0.00074005
        521.5   0.000742837
          522   0.000745631
        522.5   0.000748433
          523   0.000751242
        523.5   0.000754059
          524   0.000756884
        524.5   0.000759716
          525   0.000762556
        525.5   0.000765404
          526   0.000768259
        526.5   0.000771122
          527   0.000773993
        527.5   0.000776872
          528   0.000779758
        528.5   0.000782652
          529   0.000785553
        529.5   0.000788463
          530    0.00079138
        530.5   0.000794305
          531   0.000797238
        531.5   0.000800178
          532   0.000803127
        532.5   0.000806083
          533   0.000809047
        533.5   0.000812019
          534   0.000814999