# Probe 0 (0.05 0.05 0.005)
#       Probe             0
#        Time
          0.5          0.04
            1          0.04
          1.5          0.04
            2          0.04
          2.5          0.04
            3          0.04
          3.5          0.04
            4          0.04
          4.5          0.04
            5          0.04
          5.5          0.04
            6          0.04
          6.5          0.04
            7          0.04
          7.5          0.04
            8          0.04
          8.5          0.04
            9          0.04
          9.5          0.04
           10          0.04
         10.5          0.04
           11          0.04
         11.5          0.04
           12          0.04
         12.5          0.04
           13          0.04
         13.5          0.04
           14          0.04
         14.5          0.04
           15          0.04
         15.5          0.04
           16          0.04
         16.5          0.04
           17          0.04
         17.5          0.04
           18          0.04
         18.5          0.04
           19          0.04
         19.5          0.04
           20          0.04
         20.5          0.04
           21          0.04
         21.5          0.04
           22          0.04
         22.5          0.04
           23          0.04
         23.5          0.04
           24          0.04
         24.5          0.04
           25          0.04
         25.5          0.04
           26          0.04
         26.5          0.04
           27          0.04
         27.5          0.04
           28          0.04
         28.5          0.04
           29          0.04
         29.5          0.04
           30          0.04
         30.5          0.04
           31          0.04
         31.5          0.04
           32          0.04
         32.5          0.04
           33          0.04
         33.5          0.04
           34          0.04
         34.5          0.04
           35          0.04
         35.5          0.04
           36          0.04
         36.5          0.04
           37          0.04
         37.5          0.04
           38          0.04
         38.5          0.04
           39          0.04
         39.5     0.0399999
           40     0.0399999
         40.5     0.0399999
           41     0.0399999
         41.5     0.0399999
           42     0.0399999
         42.5     0.0399999
           43     0.0399999
         43.5     0.0399999
           44     0.0399999
         44.5     0.0399999
           45     0.0399999
         45.5     0.0399999
           46     0.0399999
         46.5     0.0399999
           47     0.0399999
         47.5     0.0399999
           48     0.0399999
         48.5     0.0399999
           49     0.0399999
         49.5     0.0399999
           50     0.0399999
         50.5     0.0399999
           51     0.0399999
         51.5     0.0399999
           52     0.0399999
         52.5     0.0399999
           53     0.0399999
         53.5     0.0399999
           54     0.0399999
         54.5     0.0399999
           55     0.0399999
         55.5     0.0399999
           56     0.0399999
         56.5     0.0399999
           57     0.0399999
         57.5     0.0399999
           58     0.0399999
         58.5     0.0399999
           59     0.0399999
         59.5     0.0399998
           60     0.0399998
         60.5     0.0399998
           61     0.0399998
         61.5     0.0399998
           62     0.0399998
         62.5     0.0399998
           63     0.0399998
         63.5     0.0399998
           64     0.0399998
         64.5     0.0399998
           65     0.0399998
         65.5     0.0399998
           66     0.0399998
         66.5     0.0399998
           67     0.0399998
         67.5     0.0399998
           68     0.0399998
         68.5     0.0399997
           69     0.0399997
         69.5     0.0399997
           70     0.0399997
         70.5     0.0399997
           71     0.0399997
         71.5     0.0399997
           72     0.0399997
         72.5     0.0399997
           73     0.0399997
         73.5     0.0399997
           74     0.0399997
         74.5     0.0399997
           75     0.0399997
         75.5     0.0399996
           76     0.0399996
         76.5     0.0399996
           77     0.0399996
         77.5     0.0399996
           78     0.0399996
         78.5     0.0399996
           79     0.0399996
         79.5     0.0399996
           80     0.0399996
         80.5     0.0399995
           81     0.0399995
         81.5     0.0399995
           82     0.0399995
         82.5     0.0399995
           83     0.0399995
         83.5     0.0399995
           84     0.0399995
         84.5     0.0399995
           85     0.0399994
         85.5     0.0399994
           86     0.0399994
         86.5     0.0399994
           87     0.0399994
         87.5     0.0399994
           88     0.0399994
         88.5     0.0399993
           89     0.0399993
         89.5     0.0399993
           90     0.0399993
         90.5     0.0399993
           91     0.0399993
         91.5     0.0399993
           92     0.0399992
         92.5     0.0399992
           93     0.0399992
         93.5     0.0399992
           94     0.0399992
         94.5     0.0399992
           95     0.0399991
         95.5     0.0399991
           96     0.0399991
         96.5     0.0399991
           97     0.0399991
         97.5     0.0399991
           98      0.039999
         98.5      0.039999
           99      0.039999
         99.5      0.039999
          100      0.039999
        100.5     0.0399989
          101     0.0399989
        101.5     0.0399989
          102     0.0399989
        102.5     0.0399988
          103     0.0399988
        103.5     0.0399988
          104     0.0399988
        104.5     0.0399988
          105     0.0399987
        105.5     0.0399987
          106     0.0399987
        106.5     0.0399987
          107     0.0399986
        107.5     0.0399986
          108     0.0399986
        108.5     0.0399986
          109     0.0399985
        109.5     0.0399985
          110     0.0399985
        110.5     0.0399985
          111     0.0399984
        111.5     0.0399984
          112     0.0399984
        112.5     0.0399983
          113     0.0399983
        113.5     0.0399983
          114     0.0399982
        114.5     0.0399982
          115     0.0399982
        115.5     0.0399982
          116     0.0399981
        116.5     0.0399981
          117     0.0399981
        117.5      0.039998
          118      0.039998
        118.5      0.039998
          119     0.0399979
        119.5     0.0399979
          120     0.0399979
        120.5     0.0399978
          121     0.0399978
        121.5     0.0399977
          122     0.0399977
        122.5     0.0399977
          123     0.0399976
        123.5     0.0399976
          124     0.0399976
        124.5     0.0399975
          125     0.0399975
        125.5     0.0399974
          126     0.0399974
        126.5     0.0399974
          127     0.0399973
        127.5     0.0399973
          128     0.0399972
        128.5     0.0399972
          129     0.0399971
        129.5     0.0399971
          130     0.0399971
        130.5      0.039997
          131      0.039997
        131.5     0.0399969
          132     0.0399969
        132.5     0.0399968
          133     0.0399968
        133.5     0.0399967
          134     0.0399967
        134.5     0.0399966
          135     0.0399966
        135.5     0.0399965
          136     0.0399965
        136.5     0.0399964
          137     0.0399964
        137.5     0.0399963
          138     0.0399963
        138.5     0.0399962
          139     0.0399962
        139.5     0.0399961
          140      0.039996
        140.5      0.039996
          141     0.0399959
        141.5     0.0399959
          142     0.0399958
        142.5     0.0399958
          143     0.0399957
        143.5     0.0399956
          144     0.0399956
        144.5     0.0399955
          145     0.0399955
        145.5     0.0399954
          146     0.0399953
        146.5     0.0399953
          147     0.0399952
        147.5     0.0399951
          148     0.0399951
        148.5      0.039995
          149     0.0399949
        149.5     0.0399949
          150     0.0399948
        150.5     0.0399947
          151     0.0399947
        151.5     0.0399946
          152     0.0399945
        152.5     0.0399944
          153     0.0399944
        153.5     0.0399943
          154     0.0399942
        154.5     0.0399941
          155     0.0399941
        155.5      0.039994
          156     0.0399939
        156.5     0.0399938
          157     0.0399938
        157.5     0.0399937
          158     0.0399936
        158.5     0.0399935
          159     0.0399934
        159.5     0.0399934
          160     0.0399933
        160.5     0.0399932
          161     0.0399931
        161.5      0.039993
          162     0.0399929
        162.5     0.0399928
          163     0.0399928
        163.5     0.0399927
          164     0.0399926
        164.5     0.0399925
          165     0.0399924
        165.5     0.0399923
          166     0.0399922
        166.5     0.0399921
          167      0.039992
        167.5     0.0399919
          168     0.0399918
        168.5     0.0399917
          169     0.0399916
        169.5     0.0399915
          170     0.0399914
        170.5     0.0399913
          171     0.0399912
        171.5     0.0399911
          172      0.039991
        172.5     0.0399909
          173     0.0399908
        173.5     0.0399907
          174     0.0399906
        174.5     0.0399905
          175     0.0399904
        175.5     0.0399903
          176     0.0399902
        176.5       0.03999
          177     0.0399899
        177.5     0.0399898
          178     0.0399897
        178.5     0.0399896
          179     0.0399895
        179.5     0.0399893
          180     0.0399892
        180.5     0.0399891
          181      0.039989
        181.5     0.0399889
          182     0.0399887
        182.5     0.0399886
          183     0.0399885
        183.5     0.0399884
          184     0.0399882
        184.5     0.0399881
          185      0.039988
        185.5     0.0399879
          186     0.0399877
        186.5     0.0399876
          187     0.0399875
        187.5     0.0399873
          188     0.0399872
        188.5     0.0399871
          189     0.0399869
        189.5     0.0399868
          190     0.0399866
        190.5     0.0399865
          191     0.0399864
        191.5     0.0399862
          192     0.0399861
        192.5     0.0399859
          193     0.0399858
        193.5     0.0399856
          194     0.0399855
        194.5     0.0399853
          195     0.0399852
        195.5      0.039985
          196     0.0399849
        196.5     0.0399847
          197     0.0399846
        197.5     0.0399844
          198     0.0399842
        198.5     0.0399841
          199     0.0399839
        199.5     0.0399838
          200     0.0399836
        200.5     0.0399834
          201     0.0399833
        201.5     0.0399831
          202     0.0399829
        202.5     0.0399828
          203     0.0399826
        203.5     0.0399824
          204     0.0399822
        204.5     0.0399821
          205     0.0399819
        205.5     0.0399817
          206     0.0399815
        206.5     0.0399814
          207     0.0399812
        207.5      0.039981
          208     0.0399808
        208.5     0.0399806
          209     0.0399804
        209.5     0.0399803
          210     0.0399801
        210.5     0.0399799
          211     0.0399797
        211.5     0.0399795
          212     0.0399793
        212.5     0.0399791
          213     0.0399789
        213.5     0.0399787
          214     0.0399785
        214.5     0.0399783
          215     0.0399781
        215.5     0.0399779
          216     0.0399777
        216.5     0.0399775
          217     0.0399773
        217.5     0.0399771
          218     0.0399769
        218.5     0.0399766
          219     0.0399764
        219.5     0.0399762
          220      0.039976
        220.5     0.0399758
          221     0.0399756
        221.5     0.0399753
          222     0.0399751
        222.5     0.0399749
          223     0.0399747
        223.5     0.0399744
          224     0.0399742
        224.5      0.039974
          225     0.0399737
        225.5     0.0399735
          226     0.0399733
        226.5      0.039973
          227     0.0399728
        227.5     0.0399726
          228     0.0399723
        228.5     0.0399721
          229     0.0399718
        229.5     0.0399716
          230     0.0399713
        230.5     0.0399711
          231     0.0399708
        231.5     0.0399706
          232     0.0399703
        232.5     0.0399701
          233     0.0399698
        233.5     0.0399695
          234     0.0399693
        234.5      0.039969
          235     0.0399688
        235.5     0.0399685
          236     0.0399682
        236.5      0.039968
          237     0.0399677
        237.5     0.0399674
          238     0.0399671
        238.5     0.0399669
          239     0.0399666
        239.5     0.0399663
          240      0.039966
        240.5     0.0399657
          241     0.0399654
        241.5     0.0399652
          242     0.0399649
        242.5     0.0399646
          243     0.0399643
        243.5      0.039964
          244     0.0399637
        244.5     0.0399634
          245     0.0399631
        245.5     0.0399628
          246     0.0399625
        246.5     0.0399622
          247     0.0399619
        247.5     0.0399616
          248     0.0399613
        248.5     0.0399609
          249     0.0399606
        249.5     0.0399603
          250       0.03996
        250.5     0.0399597
          251     0.0399594
        251.5      0.039959
          252     0.0399587
        252.5     0.0399584
          253      0.039958
        253.5     0.0399577
          254     0.0399574
        254.5      0.039957
          255     0.0399567
        255.5     0.0399564
          256      0.039956
        256.5     0.0399557
          257     0.0399553
        257.5      0.039955
          258     0.0399546
        258.5     0.0399543
          259     0.0399539
        259.5     0.0399536
          260     0.0399532
        260.5     0.0399529
          261     0.0399525
        261.5     0.0399521
          262     0.0399518
        262.5     0.0399514
          263      0.039951
        263.5     0.0399506
          264     0.0399503
        264.5     0.0399499
          265     0.0399495
        265.5     0.0399491
          266     0.0399487
        266.5     0.0399484
          267      0.039948
        267.5     0.0399476
          268     0.0399472
        268.5     0.0399468
          269     0.0399464
        269.5      0.039946
          270     0.0399456
        270.5     0.0399452
          271     0.0399448
        271.5     0.0399444
          272      0.039944
        272.5     0.0399436
          273     0.0399431
        273.5     0.0399427
          274     0.0399423
        274.5     0.0399419
          275     0.0399415
        275.5      0.039941
          276     0.0399406
        276.5     0.0399402
          277     0.0399397
        277.5     0.0399393
          278     0.0399389
        278.5     0.0399384
          279      0.039938
        279.5     0.0399375
          280     0.0399371
        280.5     0.0399366
          281     0.0399362
        281.5     0.0399357
          282     0.0399353
        282.5     0.0399348
          283     0.0399344
        283.5     0.0399339
          284     0.0399334
        284.5      0.039933
          285     0.0399325
        285.5      0.039932
          286     0.0399315
        286.5     0.0399311
          287     0.0399306
        287.5     0.0399301
          288     0.0399296
        288.5     0.0399291
          289     0.0399286
        289.5     0.0399281
          290     0.0399276
        290.5     0.0399271
          291     0.0399266
        291.5     0.0399261
          292     0.0399256
        292.5     0.0399251
          293     0.0399246
        293.5     0.0399241
          294     0.0399236
        294.5      0.039923
          295     0.0399225
        295.5      0.039922
          296     0.0399215
        296.5     0.0399209
          297     0.0399204
        297.5     0.0399199
          298     0.0399193
        298.5     0.0399188
          299     0.0399182
        299.5     0.0399177
          300     0.0399171
        300.5     0.0399166
          301      0.039916
        301.5     0.0399155
          302     0.0399149
        302.5     0.0399144
          303     0.0399138
        303.5     0.0399132
          304     0.0399127
        304.5     0.0399121
          305     0.0399115
        305.5     0.0399109
          306     0.0399103
        306.5     0.0399097
          307     0.0399092
        307.5     0.0399086
          308      0.039908
        308.5     0.0399074
          309     0.0399068
        309.5     0.0399062
          310     0.0399056
        310.5      0.039905
          311     0.0399043
        311.5     0.0399037
          312     0.0399031
        312.5     0.0399025
          313     0.0399019
        313.5     0.0399012
          314     0.0399006
        314.5        0.0399
          315     0.0398993
        315.5     0.0398987
          316     0.0398981
        316.5     0.0398974
          317     0.0398968
        317.5     0.0398961
          318     0.0398955
        318.5     0.0398948
          319     0.0398941
        319.5     0.0398935
          320     0.0398928
        320.5     0.0398921
          321     0.0398915
        321.5     0.0398908
          322     0.0398901
        322.5     0.0398894
          323     0.0398888
        323.5     0.0398881
          324     0.0398874
        324.5     0.0398867
          325      0.039886
        325.5     0.0398853
          326     0.0398846
        326.5     0.0398839
          327     0.0398832
        327.5     0.0398824
          328     0.0398817
        328.5      0.039881
          329     0.0398803
        329.5     0.0398796
          330     0.0398788
        330.5     0.0398781
          331     0.0398774
        331.5     0.0398766
          332     0.0398759
        332.5     0.0398751
          333     0.0398744
        333.5     0.0398736
          334     0.0398729
        334.5     0.0398721
          335     0.0398713
        335.5     0.0398706
          336     0.0398698
        336.5      0.039869
          337     0.0398682
        337.5     0.0398675
          338     0.0398667
        338.5     0.0398659
          339     0.0398651
        339.5     0.0398643
          340     0.0398635
        340.5     0.0398627
          341     0.0398619
        341.5     0.0398611
          342     0.0398603
        342.5     0.0398595
          343     0.0398586
        343.5     0.0398578
          344      0.039857
        344.5     0.0398562
          345     0.0398553
        345.5     0.0398545
          346     0.0398537
        346.5     0.0398528
          347      0.039852
        347.5     0.0398511
          348     0.0398503
        348.5     0.0398494
          349     0.0398485
        349.5     0.0398477
          350     0.0398468
        350.5     0.0398459
          351      0.039845
        351.5     0.0398442
          352     0.0398433
        352.5     0.0398424
          353     0.0398415
        353.5     0.0398406
          354     0.0398397
        354.5     0.0398388
          355     0.0398379
        355.5      0.039837
          356     0.0398361
        356.5     0.0398351
          357     0.0398342
        357.5     0.0398333
          358     0.0398324
        358.5     0.0398314
          359     0.0398305
        359.5     0.0398296
          360     0.0398286
        360.5     0.0398277
          361     0.0398267
        361.5     0.0398257
          362     0.0398248
        362.5     0.0398238
          363     0.0398229
        363.5     0.0398219
          364     0.0398209
        364.5     0.0398199
          365     0.0398189
        365.5     0.0398179
          366      0.039817
        366.5      0.039816
          367      0.039815
        367.5     0.0398139
          368     0.0398129
        368.5     0.0398119
          369     0.0398109
        369.5     0.0398099
          370     0.0398089
        370.5     0.0398078
          371     0.0398068
        371.5     0.0398058
          372     0.0398047
        372.5     0.0398037
          373     0.0398026
        373.5     0.0398016
          374     0.0398005
        374.5     0.0397994
          375     0.0397984
        375.5     0.0397973
          376     0.0397962
        376.5     0.0397951
          377     0.0397941
        377.5      0.039793
          378     0.0397919
        378.5     0.0397908
          379     0.0397897
        379.5     0.0397886
          380     0.0397875
        380.5     0.0397864
          381     0.0397852
        381.5     0.0397841
          382      0.039783
        382.5     0.0397819
          383     0.0397807
        383.5     0.0397796
          384     0.0397784
        384.5     0.0397773
          385     0.0397761
        385.5      0.039775
          386     0.0397738
        386.5     0.0397726
          387     0.0397715
        387.5     0.0397703
          388     0.0397691
        388.5     0.0397679
          389     0.0397667
        389.5     0.0397655
          390     0.0397643
        390.5     0.0397631
          391     0.0397619
        391.5     0.0397607
          392     0.0397595
        392.5     0.0397583
          393     0.0397571
        393.5     0.0397558
          394     0.0397546
        394.5     0.0397534
          395     0.0397521
        395.5     0.0397509
          396     0.0397496
        396.5     0.0397483
          397     0.0397471
        397.5     0.0397458
          398     0.0397445
        398.5     0.0397433
          399      0.039742
        399.5     0.0397407
          400     0.0397394
        400.5     0.0397381
          401     0.0397368
        401.5     0.0397355
          402     0.0397342
        402.5     0.0397329
          403     0.0397316
        403.5     0.0397302
          404     0.0397289
        404.5     0.0397276
          405     0.0397262
        405.5     0.0397249
          406     0.0397235
        406.5     0.0397222
          407     0.0397208
        407.5     0.0397195
          408     0.0397181
        408.5     0.0397167
          409     0.0397153
        409.5      0.039714
          410     0.0397126
        410.5     0.0397112
          411     0.0397098
        411.5     0.0397084
          412      0.039707
        412.5     0.0397055
          413     0.0397041
        413.5     0.0397027
          414     0.0397013
        414.5     0.0396998
          415     0.0396984
        415.5      0.039697
          416     0.0396955
        416.5     0.0396941
          417     0.0396926
        417.5     0.0396911
          418     0.0396897
        418.5     0.0396882
          419     0.0396867
        419.5     0.0396852
          420     0.0396837
        420.5     0.0396822
          421     0.0396807
        421.5     0.0396792
          422     0.0396777
        422.5     0.0396762
          423     0.0396747
        423.5     0.0396731
          424     0.0396716
        424.5     0.0396701
          425     0.0396685
        425.5      0.039667
          426     0.0396654
        426.5     0.0396639
          427     0.0396623
        427.5     0.0396607
          428     0.0396592
        428.5     0.0396576
          429      0.039656
        429.5     0.0396544
          430     0.0396528
        430.5     0.0396512
          431     0.0396496
        431.5      0.039648
          432     0.0396464
        432.5     0.0396447
          433     0.0396431
        433.5     0.0396415
          434     0.0396398
        434.5     0.0396382
          435     0.0396365
        435.5     0.0396349
          436     0.0396332
        436.5     0.0396316
          437     0.0396299
        437.5     0.0396282
          438     0.0396265
        438.5     0.0396248
          439     0.0396231
        439.5     0.0396214
          440     0.0396197
        440.5      0.039618
          441     0.0396163
        441.5     0.0396146
          442     0.0396128
        442.5     0.0396111
          443     0.0396094
        443.5     0.0396076
          444     0.0396059
        444.5     0.0396041
          445     0.0396023
        445.5     0.0396006
          446     0.0395988
        446.5      0.039597
          447     0.0395952
        447.5     0.0395934
          448     0.0395916
        448.5     0.0395898
          449      0.039588
        449.5     0.0395862
          450     0.0395844
        450.5     0.0395825
          451     0.0395807
        451.5     0.0395789
          452      0.039577
        452.5     0.0395752
          453     0.0395733
        453.5     0.0395714
          454     0.0395696
        454.5     0.0395677
          455     0.0395658
        455.5     0.0395639
          456      0.039562
        456.5     0.0395601
          457     0.0395582
        457.5     0.0395563
          458     0.0395544
        458.5     0.0395524
          459     0.0395505
        459.5     0.0395486
          460     0.0395466
        460.5     0.0395447
          461     0.0395427
        461.5     0.0395408
          462     0.0395388
        462.5     0.0395368
          463     0.0395348
        463.5     0.0395329
          464     0.0395309
        464.5     0.0395289
          465     0.0395269
        465.5     0.0395249
          466     0.0395228
        466.5     0.0395208
          467     0.0395188
        467.5     0.0395167
          468     0.0395147
        468.5     0.0395126
          469     0.0395106
        469.5     0.0395085
          470     0.0395065
        470.5     0.0395044
          471     0.0395023
        471.5     0.0395002
          472     0.0394981
        472.5      0.039496
          473     0.0394939
        473.5     0.0394918
          474     0.0394897
        474.5     0.0394876
          475     0.0394854
        475.5     0.0394833
          476     0.0394811
        476.5      0.039479
          477     0.0394768
        477.5     0.0394747
          478     0.0394725
        478.5     0.0394703
          479     0.0394681
        479.5     0.0394659
          480     0.0394637
        480.5     0.0394615
          481     0.0394593
        481.5     0.0394571
          482     0.0394549
        482.5     0.0394526
          483     0.0394504
        483.5     0.0394482
          484     0.0394459
        484.5     0.0394437
          485     0.0394414
        485.5     0.0394391
          486     0.0394368
        486.5     0.0394346
          487     0.0394323
        487.5       0.03943
          488     0.0394277
        488.5     0.0394254
          489      0.039423
        489.5     0.0394207
          490     0.0394184
        490.5      0.039416
          491     0.0394137
        491.5     0.0394113
          492      0.039409
        492.5     0.0394066
          493     0.0394042
        493.5     0.0394019
          494     0.0393995
        494.5     0.0393971
          495     0.0393947
        495.5     0.0393923
          496     0.0393898
        496.5     0.0393874
          497      0.039385
        497.5     0.0393826
          498     0.0393801
        498.5     0.0393777
          499     0.0393752
        499.5     0.0393727
          500     0.0393703
        500.5     0.0393678
          501     0.0393653
        501.5     0.0393628
          502     0.0393603
        502.5     0.0393578
          503     0.0393553
        503.5     0.0393528
          504     0.0393502
        504.5     0.0393477
          505     0.0393452
        505.5     0.0393426
          506     0.0393401
        506.5     0.0393375
          507     0.0393349
        507.5     0.0393323
          508     0.0393298
        508.5     0.0393272
          509     0.0393246
        509.5      0.039322
          510     0.0393193
        510.5     0.0393167
          511     0.0393141
        511.5     0.0393114
          512     0.0393088
        512.5     0.0393061
          513     0.0393035
        513.5     0.0393008
          514     0.0392981
        514.5     0.0392955
          515     0.0392928
        515.5     0.0392901
          516     0.0392874
        516.5     0.0392847
          517     0.0392819
        517.5     0.0392792
          518     0.0392765
        518.5     0.0392737
          519      0.039271
        519.5     0.0392682
          520     0.0392655
        520.5     0.0392627
          521     0.0392599
        521.5     0.0392571
          522     0.0392543
        522.5     0.0392515
          523     0.0392487
        523.5     0.0392459
          524     0.0392431
        524.5     0.0392403
          525     0.0392374
        525.5     0.0392346
          526     0.0392317
        526.5     0.0392289
          527      0.039226
        527.5     0.0392231
          528     0.0392202
        528.5     0.0392173
          529     0.0392144
        529.5     0.0392115
          530     0.0392086
        530.5     0.0392057
          531     0.0392027
        531.5     0.0391998
          532     0.0391968
        532.5     0.0391939
          533     0.0391909
        533.5      0.039188
          534      0.039185