# Probe 0 (0.05 0.05 0.005)
#       Probe             0
#        Time
          0.5   3.62077e+09
            1   3.62077e+09
          1.5   3.62077e+09
            2   3.62077e+09
          2.5   3.62077e+09
            3   3.62077e+09
          3.5   3.62077e+09
            4   3.62077e+09
          4.5   3.62077e+09
            5   3.62077e+09
          5.5   3.62077e+09
            6   3.62077e+09
          6.5   3.62077e+09
            7   3.62077e+09
          7.5   3.62077e+09
            8   3.62077e+09
          8.5   3.62077e+09
            9   3.62077e+09
          9.5   3.62077e+09
           10   3.62077e+09
         10.5   3.62077e+09
           11   3.62077e+09
         11.5   3.62077e+09
           12   3.62077e+09
         12.5   3.62077e+09
           13   3.62077e+09
         13.5   3.62077e+09
           14   3.62077e+09
         14.5   3.62077e+09
           15   3.62077e+09
         15.5   3.62077e+09
           16   3.62077e+09
         16.5   3.62077e+09
           17   3.62077e+09
         17.5   3.62077e+09
           18   3.62077e+09
         18.5   3.62077e+09
           19   3.62077e+09
         19.5   3.62077e+09
           20   3.62077e+09
         20.5   3.62077e+09
           21   3.62077e+09
         21.5   3.62077e+09
           22   3.62077e+09
         22.5   3.62077e+09
           23   3.62077e+09
         23.5   3.62077e+09
           24   3.62077e+09
         24.5   3.62077e+09
           25   3.62077e+09
         25.5   3.62077e+09
           26   3.62077e+09
         26.5   3.62077e+09
           27   3.62077e+09
         27.5   3.62077e+09
           28   3.62077e+09
         28.5   3.62077e+09
           29   3.62077e+09
         29.5   3.62077e+09
           30   3.62077e+09
         30.5   3.62077e+09
           31   3.62077e+09
         31.5   3.62077e+09
           32   3.62077e+09
         32.5   3.62077e+09
           33   3.62077e+09
         33.5   3.62077e+09
           34   3.62077e+09
         34.5   3.62077e+09
           35   3.62077e+09
         35.5   3.62077e+09
           36   3.62077e+09
         36.5   3.62077e+09
           37   3.62077e+09
         37.5   3.62077e+09
           38   3.62077e+09
         38.5   3.62077e+09
           39   3.62077e+09
         39.5   3.62077e+09
           40   3.62077e+09
         40.5   3.62077e+09
           41   3.62077e+09
         41.5   3.62077e+09
           42   3.62077e+09
         42.5   3.62077e+09
           43   3.62077e+09
         43.5   3.62077e+09
           44   3.62077e+09
         44.5   3.62077e+09
           45   3.62077e+09
         45.5   3.62077e+09
           46   3.62077e+09
         46.5   3.62077e+09
           47   3.62077e+09
         47.5   3.62077e+09
           48   3.62077e+09
         48.5   3.62077e+09
           49   3.62077e+09
         49.5   3.62077e+09
           50   3.62077e+09
         50.5   3.62077e+09
           51   3.62077e+09
         51.5   3.62077e+09
           52   3.62077e+09
         52.5   3.62077e+09
           53   3.62077e+09
         53.5   3.62077e+09
           54   3.62077e+09
         54.5   3.62077e+09
           55   3.62077e+09
         55.5   3.62077e+09
           56   3.62077e+09
         56.5   3.62077e+09
           57   3.62077e+09
         57.5   3.62077e+09
           58   3.62077e+09
         58.5   3.62077e+09
           59   3.62077e+09
         59.5   3.62077e+09
           60   3.62077e+09
         60.5   3.62077e+09
           61   3.62077e+09
         61.5   3.62077e+09
           62   3.62077e+09
         62.5   3.62077e+09
           63   3.62077e+09
         63.5   3.62077e+09
           64   3.62077e+09
         64.5   3.62077e+09
           65   3.62077e+09
         65.5   3.62077e+09
           66   3.62077e+09
         66.5   3.62077e+09
           67   3.62077e+09
         67.5   3.62077e+09
           68   3.62077e+09
         68.5   3.62077e+09
           69   3.62077e+09
         69.5   3.62077e+09
           70   3.62077e+09
         70.5   3.62077e+09
           71   3.62077e+09
         71.5   3.62077e+09
           72   3.62077e+09
         72.5   3.62077e+09
           73   3.62077e+09
         73.5   3.62077e+09
           74   3.62077e+09
         74.5   3.62077e+09
           75   3.62077e+09
         75.5   3.62077e+09
           76   3.62077e+09
         76.5   3.62077e+09
           77   3.62077e+09
         77.5   3.62077e+09
           78   3.62077e+09
         78.5   3.62077e+09
           79   3.62077e+09
         79.5   3.62077e+09
           80   3.62077e+09
         80.5   3.62077e+09
           81   3.62077e+09
         81.5   3.62077e+09
           82   3.62077e+09
         82.5   3.62077e+09
           83   3.62077e+09
         83.5   3.62077e+09
           84   3.62077e+09
         84.5   3.62077e+09
           85   3.62077e+09
         85.5   3.62077e+09
           86   3.62077e+09
         86.5   3.62077e+09
           87   3.62077e+09
         87.5   3.62077e+09
           88   3.62077e+09
         88.5   3.62077e+09
           89   3.62077e+09
         89.5   3.62077e+09
           90   3.62077e+09
         90.5   3.62077e+09
           91   3.62077e+09
         91.5   3.62077e+09
           92   3.62077e+09
         92.5   3.62077e+09
           93   3.62077e+09
         93.5   3.62077e+09
           94   3.62077e+09
         94.5   3.62077e+09
           95   3.62077e+09
         95.5   3.62077e+09
           96   3.62077e+09
         96.5   3.62077e+09
           97   3.62077e+09
         97.5   3.62077e+09
           98   3.62077e+09
         98.5   3.62077e+09
           99   3.62077e+09
         99.5   3.62077e+09
          100   3.62077e+09
        100.5   3.62077e+09
          101   3.62077e+09
        101.5   3.62077e+09
          102   3.62077e+09
        102.5   3.62077e+09
          103   3.62077e+09
        103.5   3.62077e+09
          104   3.62077e+09
        104.5   3.62077e+09
          105   3.62077e+09
        105.5   3.62077e+09
          106   3.62077e+09
        106.5   3.62077e+09
          107   3.62077e+09
        107.5   3.62077e+09
          108   3.62077e+09
        108.5   3.62077e+09
          109   3.62077e+09
        109.5   3.62077e+09
          110   3.62077e+09
        110.5   3.62077e+09
          111   3.62077e+09
        111.5   3.62077e+09
          112   3.62077e+09
        112.5   3.62077e+09
          113   3.62077e+09
        113.5   3.62077e+09
          114   3.62077e+09
        114.5   3.62077e+09
          115   3.62077e+09
        115.5   3.62077e+09
          116   3.62076e+09
        116.5   3.62076e+09
          117   3.62076e+09
        117.5   3.62076e+09
          118   3.62076e+09
        118.5   3.62076e+09
          119   3.62076e+09
        119.5   3.62076e+09
          120   3.62076e+09
        120.5   3.62076e+09
          121   3.62076e+09
        121.5   3.62076e+09
          122   3.62076e+09
        122.5   3.62076e+09
          123   3.62076e+09
        123.5   3.62076e+09
          124   3.62076e+09
        124.5   3.62076e+09
          125   3.62076e+09
        125.5   3.62076e+09
          126   3.62076e+09
        126.5   3.62076e+09
          127   3.62076e+09
        127.5   3.62076e+09
          128   3.62076e+09
        128.5   3.62076e+09
          129   3.62076e+09
        129.5   3.62076e+09
          130   3.62076e+09
        130.5   3.62076e+09
          131   3.62076e+09
        131.5   3.62076e+09
          132   3.62076e+09
        132.5   3.62076e+09
          133   3.62076e+09
        133.5   3.62076e+09
          134   3.62076e+09
        134.5   3.62076e+09
          135   3.62076e+09
        135.5   3.62076e+09
          136   3.62076e+09
        136.5   3.62076e+09
          137   3.62076e+09
        137.5   3.62076e+09
          138   3.62076e+09
        138.5   3.62076e+09
          139   3.62076e+09
        139.5   3.62076e+09
          140   3.62076e+09
        140.5   3.62076e+09
          141   3.62076e+09
        141.5   3.62076e+09
          142   3.62076e+09
        142.5   3.62076e+09
          143   3.62076e+09
        143.5   3.62076e+09
          144   3.62076e+09
        144.5   3.62076e+09
          145   3.62076e+09
        145.5   3.62076e+09
          146   3.62076e+09
        146.5   3.62076e+09
          147   3.62076e+09
        147.5   3.62076e+09
          148   3.62076e+09
        148.5   3.62076e+09
          149   3.62076e+09
        149.5   3.62076e+09
          150   3.62076e+09
        150.5   3.62076e+09
          151   3.62076e+09
        151.5   3.62076e+09
          152   3.62076e+09
        152.5   3.62076e+09
          153   3.62076e+09
        153.5   3.62076e+09
          154   3.62076e+09
        154.5   3.62076e+09
          155   3.62075e+09
        155.5   3.62075e+09
          156   3.62075e+09
        156.5   3.62075e+09
          157   3.62075e+09
        157.5   3.62075e+09
          158   3.62075e+09
        158.5   3.62075e+09
          159   3.62075e+09
        159.5   3.62075e+09
          160   3.62075e+09
        160.5   3.62075e+09
          161   3.62075e+09
        161.5   3.62075e+09
          162   3.62075e+09
        162.5   3.62075e+09
          163   3.62075e+09
        163.5   3.62075e+09
          164   3.62075e+09
        164.5   3.62075e+09
          165   3.62075e+09
        165.5   3.62075e+09
          166   3.62075e+09
        166.5   3.62075e+09
          167   3.62075e+09
        167.5   3.62075e+09
          168   3.62075e+09
        168.5   3.62075e+09
          169   3.62075e+09
        169.5   3.62075e+09
          170   3.62075e+09
        170.5   3.62075e+09
          171   3.62075e+09
        171.5   3.62075e+09
          172   3.62075e+09
        172.5   3.62075e+09
          173   3.62075e+09
        173.5   3.62075e+09
          174   3.62075e+09
        174.5   3.62075e+09
          175   3.62075e+09
        175.5   3.62075e+09
          176   3.62075e+09
        176.5   3.62074e+09
          177   3.62074e+09
        177.5   3.62074e+09
          178   3.62074e+09
        178.5   3.62074e+09
          179   3.62074e+09
        179.5   3.62074e+09
          180   3.62074e+09
        180.5   3.62074e+09
          181   3.62074e+09
        181.5   3.62074e+09
          182   3.62074e+09
        182.5   3.62074e+09
          183   3.62074e+09
        183.5   3.62074e+09
          184   3.62074e+09
        184.5   3.62074e+09
          185   3.62074e+09
        185.5   3.62074e+09
          186   3.62074e+09
        186.5   3.62074e+09
          187   3.62074e+09
        187.5   3.62074e+09
          188   3.62074e+09
        188.5   3.62074e+09
          189   3.62074e+09
        189.5   3.62074e+09
          190   3.62074e+09
        190.5   3.62074e+09
          191   3.62074e+09
        191.5   3.62074e+09
          192   3.62074e+09
        192.5   3.62073e+09
          193   3.62073e+09
        193.5   3.62073e+09
          194   3.62073e+09
        194.5   3.62073e+09
          195   3.62073e+09
        195.5   3.62073e+09
          196   3.62073e+09
        196.5   3.62073e+09
          197   3.62073e+09
        197.5   3.62073e+09
          198   3.62073e+09
        198.5   3.62073e+09
          199   3.62073e+09
        199.5   3.62073e+09
          200   3.62073e+09
        200.5   3.62073e+09
          201   3.62073e+09
        201.5   3.62073e+09
          202   3.62073e+09
        202.5   3.62073e+09
          203   3.62073e+09
        203.5   3.62073e+09
          204   3.62073e+09
        204.5   3.62073e+09
          205   3.62072e+09
        205.5   3.62072e+09
          206   3.62072e+09
        206.5   3.62072e+09
          207   3.62072e+09
        207.5   3.62072e+09
          208   3.62072e+09
        208.5   3.62072e+09
          209   3.62072e+09
        209.5   3.62072e+09
          210   3.62072e+09
        210.5   3.62072e+09
          211   3.62072e+09
        211.5   3.62072e+09
          212   3.62072e+09
        212.5   3.62072e+09
          213   3.62072e+09
        213.5   3.62072e+09
          214   3.62072e+09
        214.5   3.62072e+09
          215   3.62072e+09
        215.5   3.62071e+09
          216   3.62071e+09
        216.5   3.62071e+09
          217   3.62071e+09
        217.5   3.62071e+09
          218   3.62071e+09
        218.5   3.62071e+09
          219   3.62071e+09
        219.5   3.62071e+09
          220   3.62071e+09
        220.5   3.62071e+09
          221   3.62071e+09
        221.5   3.62071e+09
          222   3.62071e+09
        222.5   3.62071e+09
          223   3.62071e+09
        223.5   3.62071e+09
          224   3.62071e+09
        224.5    3.6207e+09
          225    3.6207e+09
        225.5    3.6207e+09
          226    3.6207e+09
        226.5    3.6207e+09
          227    3.6207e+09
        227.5    3.6207e+09
          228    3.6207e+09
        228.5    3.6207e+09
          229    3.6207e+09
        229.5    3.6207e+09
          230    3.6207e+09
        230.5    3.6207e+09
          231    3.6207e+09
        231.5    3.6207e+09
          232    3.6207e+09
        232.5    3.6207e+09
          233   3.62069e+09
        233.5   3.62069e+09
          234   3.62069e+09
        234.5   3.62069e+09
          235   3.62069e+09
        235.5   3.62069e+09
          236   3.62069e+09
        236.5   3.62069e+09
          237   3.62069e+09
        237.5   3.62069e+09
          238   3.62069e+09
        238.5   3.62069e+09
          239   3.62069e+09
        239.5   3.62069e+09
          240   3.62069e+09
        240.5   3.62068e+09
          241   3.62068e+09
        241.5   3.62068e+09
          242   3.62068e+09
        242.5   3.62068e+09
          243   3.62068e+09
        243.5   3.62068e+09
          244   3.62068e+09
        244.5   3.62068e+09
          245   3.62068e+09
        245.5   3.62068e+09
          246   3.62068e+09
        246.5   3.62068e+09
          247   3.62067e+09
        247.5   3.62067e+09
          248   3.62067e+09
        248.5   3.62067e+09
          249   3.62067e+09
        249.5   3.62067e+09
          250   3.62067e+09
        250.5   3.62067e+09
          251   3.62067e+09
        251.5   3.62067e+09
          252   3.62067e+09
        252.5   3.62067e+09
          253   3.62067e+09
        253.5   3.62066e+09
          254   3.62066e+09
        254.5   3.62066e+09
          255   3.62066e+09
        255.5   3.62066e+09
          256   3.62066e+09
        256.5   3.62066e+09
          257   3.62066e+09
        257.5   3.62066e+09
          258   3.62066e+09
        258.5   3.62066e+09
          259   3.62066e+09
        259.5   3.62065e+09
          260   3.62065e+09
        260.5   3.62065e+09
          261   3.62065e+09
        261.5   3.62065e+09
          262   3.62065e+09
        262.5   3.62065e+09
          263   3.62065e+09
        263.5   3.62065e+09
          264   3.62065e+09
        264.5   3.62065e+09
          265   3.62064e+09
        265.5   3.62064e+09
          266   3.62064e+09
        266.5   3.62064e+09
          267   3.62064e+09
        267.5   3.62064e+09
          268   3.62064e+09
        268.5   3.62064e+09
          269   3.62064e+09
        269.5   3.62064e+09
          270   3.62063e+09
        270.5   3.62063e+09
          271   3.62063e+09
        271.5   3.62063e+09
          272   3.62063e+09
        272.5   3.62063e+09
          273   3.62063e+09
        273.5   3.62063e+09
          274   3.62063e+09
        274.5   3.62063e+09
          275   3.62062e+09
        275.5   3.62062e+09
          276   3.62062e+09
        276.5   3.62062e+09
          277   3.62062e+09
        277.5   3.62062e+09
          278   3.62062e+09
        278.5   3.62062e+09
          279   3.62062e+09
        279.5   3.62061e+09
          280   3.62061e+09
        280.5   3.62061e+09
          281   3.62061e+09
        281.5   3.62061e+09
          282   3.62061e+09
        282.5   3.62061e+09
          283   3.62061e+09
        283.5   3.62061e+09
          284    3.6206e+09
        284.5    3.6206e+09
          285    3.6206e+09
        285.5    3.6206e+09
          286    3.6206e+09
        286.5    3.6206e+09
          287    3.6206e+09
        287.5    3.6206e+09
          288   3.62059e+09
        288.5   3.62059e+09
          289   3.62059e+09
        289.5   3.62059e+09
          290   3.62059e+09
        290.5   3.62059e+09
          291   3.62059e+09
        291.5   3.62059e+09
          292   3.62058e+09
        292.5   3.62058e+09
          293   3.62058e+09
        293.5   3.62058e+09
          294   3.62058e+09
        294.5   3.62058e+09
          295   3.62058e+09
        295.5   3.62058e+09
          296   3.62057e+09
        296.5   3.62057e+09
          297   3.62057e+09
        297.5   3.62057e+09
          298   3.62057e+09
        298.5   3.62057e+09
          299   3.62057e+09
        299.5   3.62057e+09
          300   3.62056e+09
        300.5   3.62056e+09
          301   3.62056e+09
        301.5   3.62056e+09
          302   3.62056e+09
        302.5   3.62056e+09
          303   3.62056e+09
        303.5   3.62055e+09
          304   3.62055e+09
        304.5   3.62055e+09
          305   3.62055e+09
        305.5   3.62055e+09
          306   3.62055e+09
        306.5   3.62055e+09
          307   3.62054e+09
        307.5   3.62054e+09
          308   3.62054e+09
        308.5   3.62054e+09
          309   3.62054e+09
        309.5   3.62054e+09
          310   3.62053e+09
        310.5   3.62053e+09
          311   3.62053e+09
        311.5   3.62053e+09
          312   3.62053e+09
        312.5   3.62053e+09
          313   3.62053e+09
        313.5   3.62052e+09
          314   3.62052e+09
        314.5   3.62052e+09
          315   3.62052e+09
        315.5   3.62052e+09
          316   3.62052e+09
        316.5   3.62051e+09
          317   3.62051e+09
        317.5   3.62051e+09
          318   3.62051e+09
        318.5   3.62051e+09
          319   3.62051e+09
        319.5    3.6205e+09
          320    3.6205e+09
        320.5    3.6205e+09
          321    3.6205e+09
        321.5    3.6205e+09
          322    3.6205e+09
        322.5   3.62049e+09
          323   3.62049e+09
        323.5   3.62049e+09
          324   3.62049e+09
        324.5   3.62049e+09
          325   3.62049e+09
        325.5   3.62048e+09
          326   3.62048e+09
        326.5   3.62048e+09
          327   3.62048e+09
        327.5   3.62048e+09
          328   3.62048e+09
        328.5   3.62047e+09
          329   3.62047e+09
        329.5   3.62047e+09
          330   3.62047e+09
        330.5   3.62047e+09
          331   3.62046e+09
        331.5   3.62046e+09
          332   3.62046e+09
        332.5   3.62046e+09
          333   3.62046e+09
        333.5   3.62046e+09
          334   3.62045e+09
        334.5   3.62045e+09
          335   3.62045e+09
        335.5   3.62045e+09
          336   3.62045e+09
        336.5   3.62044e+09
          337   3.62044e+09
        337.5   3.62044e+09
          338   3.62044e+09
        338.5   3.62044e+09
          339   3.62043e+09
        339.5   3.62043e+09
          340   3.62043e+09
        340.5   3.62043e+09
          341   3.62043e+09
        341.5   3.62042e+09
          342   3.62042e+09
        342.5   3.62042e+09
          343   3.62042e+09
        343.5   3.62042e+09
          344   3.62041e+09
        344.5   3.62041e+09
          345   3.62041e+09
        345.5   3.62041e+09
          346   3.62041e+09
        346.5    3.6204e+09
          347    3.6204e+09
        347.5    3.6204e+09
          348    3.6204e+09
        348.5   3.62039e+09
          349   3.62039e+09
        349.5   3.62039e+09
          350   3.62039e+09
        350.5   3.62039e+09
          351   3.62038e+09
        351.5   3.62038e+09
          352   3.62038e+09
        352.5   3.62038e+09
          353   3.62037e+09
        353.5   3.62037e+09
          354   3.62037e+09
        354.5   3.62037e+09
          355   3.62037e+09
        355.5   3.62036e+09
          356   3.62036e+09
        356.5   3.62036e+09
          357   3.62036e+09
        357.5   3.62035e+09
          358   3.62035e+09
        358.5   3.62035e+09
          359   3.62035e+09
        359.5   3.62035e+09
          360   3.62034e+09
        360.5   3.62034e+09
          361   3.62034e+09
        361.5   3.62034e+09
          362   3.62033e+09
        362.5   3.62033e+09
          363   3.62033e+09
        363.5   3.62033e+09
          364   3.62032e+09
        364.5   3.62032e+09
          365   3.62032e+09
        365.5   3.62032e+09
          366   3.62031e+09
        366.5   3.62031e+09
          367   3.62031e+09
        367.5   3.62031e+09
          368    3.6203e+09
        368.5    3.6203e+09
          369    3.6203e+09
        369.5    3.6203e+09
          370   3.62029e+09
        370.5   3.62029e+09
          371   3.62029e+09
        371.5   3.62029e+09
          372   3.62028e+09
        372.5   3.62028e+09
          373   3.62028e+09
        373.5   3.62028e+09
          374   3.62027e+09
        374.5   3.62027e+09
          375   3.62027e+09
        375.5   3.62026e+09
          376   3.62026e+09
        376.5   3.62026e+09
          377   3.62026e+09
        377.5   3.62025e+09
          378   3.62025e+09
        378.5   3.62025e+09
          379   3.62025e+09
        379.5   3.62024e+09
          380   3.62024e+09
        380.5   3.62024e+09
          381   3.62023e+09
        381.5   3.62023e+09
          382   3.62023e+09
        382.5   3.62023e+09
          383   3.62022e+09
        383.5   3.62022e+09
          384   3.62022e+09
        384.5   3.62021e+09
          385   3.62021e+09
        385.5   3.62021e+09
          386   3.62021e+09
        386.5    3.6202e+09
          387    3.6202e+09
        387.5    3.6202e+09
          388   3.62019e+09
        388.5   3.62019e+09
          389   3.62019e+09
        389.5   3.62018e+09
          390   3.62018e+09
        390.5   3.62018e+09
          391   3.62018e+09
        391.5   3.62017e+09
          392   3.62017e+09
        392.5   3.62017e+09
          393   3.62016e+09
        393.5   3.62016e+09
          394   3.62016e+09
        394.5   3.62015e+09
          395   3.62015e+09
        395.5   3.62015e+09
          396   3.62015e+09
        396.5   3.62014e+09
          397   3.62014e+09
        397.5   3.62014e+09
          398   3.62013e+09
        398.5   3.62013e+09
          399   3.62013e+09
        399.5   3.62012e+09
          400   3.62012e+09
        400.5   3.62012e+09
          401   3.62011e+09
        401.5   3.62011e+09
          402   3.62011e+09
        402.5    3.6201e+09
          403    3.6201e+09
        403.5    3.6201e+09
          404   3.62009e+09
        404.5   3.62009e+09
          405   3.62009e+09
        405.5   3.62008e+09
          406   3.62008e+09
        406.5   3.62008e+09
          407   3.62007e+09
        407.5   3.62007e+09
          408   3.62007e+09
        408.5   3.62006e+09
          409   3.62006e+09
        409.5   3.62006e+09
          410   3.62005e+09
        410.5   3.62005e+09
          411   3.62005e+09
        411.5   3.62004e+09
          412   3.62004e+09
        412.5   3.62003e+09
          413   3.62003e+09
        413.5   3.62003e+09
          414   3.62002e+09
        414.5   3.62002e+09
          415   3.62002e+09
        415.5   3.62001e+09
          416   3.62001e+09
        416.5   3.62001e+09
          417      3.62e+09
        417.5      3.62e+09
          418   3.61999e+09
        418.5   3.61999e+09
          419   3.61999e+09
        419.5   3.61998e+09
          420   3.61998e+09
        420.5   3.61998e+09
          421   3.61997e+09
        421.5   3.61997e+09
          422   3.61996e+09
        422.5   3.61996e+09
          423   3.61996e+09
        423.5   3.61995e+09
          424   3.61995e+09
        424.5   3.61995e+09
          425   3.61994e+09
        425.5   3.61994e+09
          426   3.61993e+09
        426.5   3.61993e+09
          427   3.61993e+09
        427.5   3.61992e+09
          428   3.61992e+09
        428.5   3.61991e+09
          429   3.61991e+09
        429.5   3.61991e+09
          430    3.6199e+09
        430.5    3.6199e+09
          431   3.61989e+09
        431.5   3.61989e+09
          432   3.61989e+09
        432.5   3.61988e+09
          433   3.61988e+09
        433.5   3.61987e+09
          434   3.61987e+09
        434.5   3.61987e+09
          435   3.61986e+09
        435.5   3.61986e+09
          436   3.61985e+09
        436.5   3.61985e+09
          437   3.61984e+09
        437.5   3.61984e+09
          438   3.61984e+09
        438.5   3.61983e+09
          439   3.61983e+09
        439.5   3.61982e+09
          440   3.61982e+09
        440.5   3.61981e+09
          441   3.61981e+09
        441.5   3.61981e+09
          442    3.6198e+09
        442.5    3.6198e+09
          443   3.61979e+09
        443.5   3.61979e+09
          444   3.61978e+09
        444.5   3.61978e+09
          445   3.61978e+09
        445.5   3.61977e+09
          446   3.61977e+09
        446.5   3.61976e+09
          447   3.61976e+09
        447.5   3.61975e+09
          448   3.61975e+09
        448.5   3.61974e+09
          449   3.61974e+09
        449.5   3.61973e+09
          450   3.61973e+09
        450.5   3.61973e+09
          451   3.61972e+09
        451.5   3.61972e+09
          452   3.61971e+09
        452.5   3.61971e+09
          453    3.6197e+09
        453.5    3.6197e+09
          454   3.61969e+09
        454.5   3.61969e+09
          455   3.61968e+09
        455.5   3.61968e+09
          456   3.61967e+09
        456.5   3.61967e+09
          457   3.61966e+09
        457.5   3.61966e+09
          458   3.61965e+09
        458.5   3.61965e+09
          459   3.61964e+09
        459.5   3.61964e+09
          460   3.61963e+09
        460.5   3.61963e+09
          461   3.61962e+09
        461.5   3.61962e+09
          462   3.61961e+09
        462.5   3.61961e+09
          463    3.6196e+09
        463.5    3.6196e+09
          464   3.61959e+09
        464.5   3.61959e+09
          465   3.61958e+09
        465.5   3.61958e+09
          466   3.61957e+09
        466.5   3.61957e+09
          467   3.61956e+09
        467.5   3.61956e+09
          468   3.61955e+09
        468.5   3.61955e+09
          469   3.61954e+09
        469.5   3.61954e+09
          470   3.61953e+09
        470.5   3.61953e+09
          471   3.61952e+09
        471.5   3.61952e+09
          472   3.61951e+09
        472.5   3.61951e+09
          473    3.6195e+09
        473.5    3.6195e+09
          474   3.61949e+09
        474.5   3.61949e+09
          475   3.61948e+09
        475.5   3.61947e+09
          476   3.61947e+09
        476.5   3.61946e+09
          477   3.61946e+09
        477.5   3.61945e+09
          478   3.61945e+09
        478.5   3.61944e+09
          479   3.61944e+09
        479.5   3.61943e+09
          480   3.61943e+09
        480.5   3.61942e+09
          481   3.61941e+09
        481.5   3.61941e+09
          482    3.6194e+09
        482.5    3.6194e+09
          483   3.61939e+09
        483.5   3.61939e+09
          484   3.61938e+09
        484.5   3.61937e+09
          485   3.61937e+09
        485.5   3.61936e+09
          486   3.61936e+09
        486.5   3.61935e+09
          487   3.61935e+09
        487.5   3.61934e+09
          488   3.61933e+09
        488.5   3.61933e+09
          489   3.61932e+09
        489.5   3.61932e+09
          490   3.61931e+09
        490.5    3.6193e+09
          491    3.6193e+09
        491.5   3.61929e+09
          492   3.61929e+09
        492.5   3.61928e+09
          493   3.61927e+09
        493.5   3.61927e+09
          494   3.61926e+09
        494.5   3.61926e+09
          495   3.61925e+09
        495.5   3.61924e+09
          496   3.61924e+09
        496.5   3.61923e+09
          497   3.61923e+09
        497.5   3.61922e+09
          498   3.61921e+09
        498.5   3.61921e+09
          499    3.6192e+09
        499.5   3.61919e+09
          500   3.61919e+09
        500.5   3.61918e+09
          501   3.61918e+09
        501.5   3.61917e+09
          502   3.61916e+09
        502.5   3.61916e+09
          503   3.61915e+09
        503.5   3.61914e+09
          504   3.61914e+09
        504.5   3.61913e+09
          505   3.61912e+09
        505.5   3.61912e+09
          506   3.61911e+09
        506.5    3.6191e+09
          507    3.6191e+09
        507.5   3.61909e+09
          508   3.61908e+09
        508.5   3.61908e+09
          509   3.61907e+09
        509.5   3.61907e+09
          510   3.61906e+09
        510.5   3.61905e+09
          511   3.61905e+09
        511.5   3.61904e+09
          512   3.61903e+09
        512.5   3.61902e+09
          513   3.61902e+09
        513.5   3.61901e+09
          514     3.619e+09
        514.5     3.619e+09
          515   3.61899e+09
        515.5   3.61898e+09
          516   3.61898e+09
        516.5   3.61897e+09
          517   3.61896e+09
        517.5   3.61896e+09
          518   3.61895e+09
        518.5   3.61894e+09
          519   3.61894e+09
        519.5   3.61893e+09
          520   3.61892e+09
        520.5   3.61891e+09
          521   3.61891e+09
        521.5    3.6189e+09
          522   3.61889e+09
        522.5   3.61889e+09
          523   3.61888e+09
        523.5   3.61887e+09
          524   3.61886e+09
        524.5   3.61886e+09
          525   3.61885e+09
        525.5   3.61884e+09
          526   3.61884e+09
        526.5   3.61883e+09
          527   3.61882e+09
        527.5   3.61881e+09
          528   3.61881e+09
        528.5    3.6188e+09
          529   3.61879e+09
        529.5   3.61878e+09
          530   3.61878e+09
        530.5   3.61877e+09
          531   3.61876e+09
        531.5   3.61875e+09
          532   3.61875e+09
        532.5   3.61874e+09
          533   3.61873e+09
        533.5   3.61872e+09
          534   3.61872e+09