# Probe 0 (0.05 0.05 0.005)
#       Probe             0
#        Time
          0.5       980.923
            1       980.923
          1.5       980.923
            2       980.923
          2.5       980.923
            3       980.923
          3.5       980.923
            4       980.923
          4.5       980.923
            5       980.923
          5.5       980.923
            6       980.923
          6.5       980.923
            7       980.923
          7.5       980.923
            8       980.923
          8.5       980.923
            9       980.923
          9.5       980.923
           10       980.923
         10.5       980.923
           11       980.923
         11.5       980.923
           12       980.923
         12.5       980.923
           13       980.923
         13.5       980.923
           14       980.923
         14.5       980.923
           15       980.923
         15.5       980.923
           16       980.923
         16.5       980.923
           17       980.923
         17.5       980.923
           18       980.923
         18.5       980.923
           19       980.923
         19.5       980.923
           20       980.923
         20.5       980.923
           21       980.923
         21.5       980.923
           22       980.923
         22.5       980.923
           23       980.923
         23.5       980.923
           24       980.923
         24.5       980.923
           25       980.923
         25.5       980.923
           26       980.923
         26.5       980.923
           27       980.923
         27.5       980.923
           28       980.923
         28.5       980.923
           29       980.923
         29.5       980.923
           30       980.923
         30.5       980.923
           31       980.923
         31.5       980.923
           32       980.923
         32.5       980.923
           33       980.923
         33.5       980.923
           34       980.923
         34.5       980.923
           35       980.923
         35.5       980.923
           36       980.923
         36.5       980.923
           37       980.923
         37.5       980.923
           38       980.923
         38.5       980.923
           39       980.923
         39.5       980.923
           40       980.923
         40.5       980.923
           41       980.923
         41.5       980.923
           42       980.923
         42.5       980.923
           43       980.922
         43.5       980.922
           44       980.922
         44.5       980.922
           45       980.922
         45.5       980.922
           46       980.922
         46.5       980.922
           47       980.922
         47.5       980.922
           48       980.922
         48.5       980.922
           49       980.922
         49.5       980.922
           50       980.922
         50.5       980.922
           51       980.922
         51.5       980.922
           52       980.922
         52.5       980.921
           53       980.921
         53.5       980.921
           54       980.921
         54.5       980.921
           55       980.921
         55.5       980.921
           56       980.921
         56.5       980.921
           57       980.921
         57.5       980.921
           58       980.921
         58.5        980.92
           59        980.92
         59.5        980.92
           60        980.92
         60.5        980.92
           61        980.92
         61.5        980.92
           62        980.92
         62.5        980.92
           63       980.919
         63.5       980.919
           64       980.919
         64.5       980.919
           65       980.919
         65.5       980.919
           66       980.919
         66.5       980.918
           67       980.918
         67.5       980.918
           68       980.918
         68.5       980.918
           69       980.918
         69.5       980.918
           70       980.917
         70.5       980.917
           71       980.917
         71.5       980.917
           72       980.917
         72.5       980.916
           73       980.916
         73.5       980.916
           74       980.916
         74.5       980.916
           75       980.915
         75.5       980.915
           76       980.915
         76.5       980.915
           77       980.915
         77.5       980.914
           78       980.914
         78.5       980.914
           79       980.914
         79.5       980.913
           80       980.913
         80.5       980.913
           81       980.913
         81.5       980.912
           82       980.912
         82.5       980.912
           83       980.911
         83.5       980.911
           84       980.911
         84.5       980.911
           85        980.91
         85.5        980.91
           86        980.91
         86.5       980.909
           87       980.909
         87.5       980.909
           88       980.908
         88.5       980.908
           89       980.908
         89.5       980.907
           90       980.907
         90.5       980.907
           91       980.906
         91.5       980.906
           92       980.905
         92.5       980.905
           93       980.905
         93.5       980.904
           94       980.904
         94.5       980.903
           95       980.903
         95.5       980.903
           96       980.902
         96.5       980.902
           97       980.901
         97.5       980.901
           98         980.9
         98.5         980.9
           99       980.899
         99.5       980.899
          100       980.898
        100.5       980.898
          101       980.897
        101.5       980.897
          102       980.896
        102.5       980.896
          103       980.895
        103.5       980.895
          104       980.894
        104.5       980.894
          105       980.893
        105.5       980.892
          106       980.892
        106.5       980.891
          107       980.891
        107.5        980.89
          108       980.889
        108.5       980.889
          109       980.888
        109.5       980.887
          110       980.887
        110.5       980.886
          111       980.885
        111.5       980.885
          112       980.884
        112.5       980.883
          113       980.883
        113.5       980.882
          114       980.881
        114.5        980.88
          115        980.88
        115.5       980.879
          116       980.878
        116.5       980.877
          117       980.876
        117.5       980.876
          118       980.875
        118.5       980.874
          119       980.873
        119.5       980.872
          120       980.871
        120.5       980.871
          121        980.87
        121.5       980.869
          122       980.868
        122.5       980.867
          123       980.866
        123.5       980.865
          124       980.864
        124.5       980.863
          125       980.862
        125.5       980.861
          126        980.86
        126.5       980.859
          127       980.858
        127.5       980.857
          128       980.856
        128.5       980.855
          129       980.854
        129.5       980.853
          130       980.852
        130.5       980.851
          131        980.85
        131.5       980.848
          132       980.847
        132.5       980.846
          133       980.845
        133.5       980.844
          134       980.843
        134.5       980.841
          135        980.84
        135.5       980.839
          136       980.838
        136.5       980.836
          137       980.835
        137.5       980.834
          138       980.833
        138.5       980.831
          139        980.83
        139.5       980.828
          140       980.827
        140.5       980.826
          141       980.824
        141.5       980.823
          142       980.822
        142.5        980.82
          143       980.819
        143.5       980.817
          144       980.816
        144.5       980.814
          145       980.813
        145.5       980.811
          146        980.81
        146.5       980.808
          147       980.806
        147.5       980.805
          148       980.803
        148.5       980.802
          149         980.8
        149.5       980.798
          150       980.797
        150.5       980.795
          151       980.793
        151.5       980.791
          152        980.79
        152.5       980.788
          153       980.786
        153.5       980.784
          154       980.782
        154.5       980.781
          155       980.779
        155.5       980.777
          156       980.775
        156.5       980.773
          157       980.771
        157.5       980.769
          158       980.767
        158.5       980.765
          159       980.763
        159.5       980.761
          160       980.759
        160.5       980.757
          161       980.755
        161.5       980.753
          162       980.751
        162.5       980.749
          163       980.746
        163.5       980.744
          164       980.742
        164.5        980.74
          165       980.738
        165.5       980.735
          166       980.733
        166.5       980.731
          167       980.728
        167.5       980.726
          168       980.724
        168.5       980.721
          169       980.719
        169.5       980.716
          170       980.714
        170.5       980.712
          171       980.709
        171.5       980.706
          172       980.704
        172.5       980.701
          173       980.699
        173.5       980.696
          174       980.694
        174.5       980.691
          175       980.688
        175.5       980.686
          176       980.683
        176.5        980.68
          177       980.677
        177.5       980.674
          178       980.672
        178.5       980.669
          179       980.666
        179.5       980.663
          180        980.66
        180.5       980.657
          181       980.654
        181.5       980.651
          182       980.648
        182.5       980.645
          183       980.642
        183.5       980.639
          184       980.636
        184.5       980.633
          185        980.63
        185.5       980.626
          186       980.623
        186.5        980.62
          187       980.617
        187.5       980.613
          188        980.61
        188.5       980.607
          189       980.603
        189.5         980.6
          190       980.597
        190.5       980.593
          191        980.59
        191.5       980.586
          192       980.583
        192.5       980.579
          193       980.575
        193.5       980.572
          194       980.568
        194.5       980.564
          195       980.561
        195.5       980.557
          196       980.553
        196.5       980.549
          197       980.546
        197.5       980.542
          198       980.538
        198.5       980.534
          199        980.53
        199.5       980.526
          200       980.522
        200.5       980.518
          201       980.514
        201.5        980.51
          202       980.506
        202.5       980.502
          203       980.497
        203.5       980.493
          204       980.489
        204.5       980.485
          205        980.48
        205.5       980.476
          206       980.472
        206.5       980.467
          207       980.463
        207.5       980.458
          208       980.454
        208.5       980.449
          209       980.445
        209.5        980.44
          210       980.436
        210.5       980.431
          211       980.426
        211.5       980.421
          212       980.417
        212.5       980.412
          213       980.407
        213.5       980.402
          214       980.397
        214.5       980.392
          215       980.387
        215.5       980.382
          216       980.377
        216.5       980.372
          217       980.367
        217.5       980.362
          218       980.357
        218.5       980.352
          219       980.346
        219.5       980.341
          220       980.336
        220.5        980.33
          221       980.325
        221.5        980.32
          222       980.314
        222.5       980.309
          223       980.303
        223.5       980.297
          224       980.292
        224.5       980.286
          225        980.28
        225.5       980.275
          226       980.269
        226.5       980.263
          227       980.257
        227.5       980.251
          228       980.245
        228.5        980.24
          229       980.234
        229.5       980.227
          230       980.221
        230.5       980.215
          231       980.209
        231.5       980.203
          232       980.197
        232.5        980.19
          233       980.184
        233.5       980.178
          234       980.171
        234.5       980.165
          235       980.158
        235.5       980.152
          236       980.145
        236.5       980.139
          237       980.132
        237.5       980.125
          238       980.118
        238.5       980.112
          239       980.105
        239.5       980.098
          240       980.091
        240.5       980.084
          241       980.077
        241.5        980.07
          242       980.063
        242.5       980.056
          243       980.049
        243.5       980.041
          244       980.034
        244.5       980.027
          245        980.02
        245.5       980.012
          246       980.005
        246.5       979.997
          247        979.99
        247.5       979.982
          248       979.974
        248.5       979.967
          249       979.959
        249.5       979.951
          250       979.944
        250.5       979.936
          251       979.928
        251.5        979.92
          252       979.912
        252.5       979.904
          253       979.896
        253.5       979.887
          254       979.879
        254.5       979.871
          255       979.863
        255.5       979.854
          256       979.846
        256.5       979.838
          257       979.829
        257.5       979.821
          258       979.812
        258.5       979.803
          259       979.795
        259.5       979.786
          260       979.777
        260.5       979.768
          261       979.759
        261.5        979.75
          262       979.741
        262.5       979.732
          263       979.723
        263.5       979.714
          264       979.705
        264.5       979.696
          265       979.686
        265.5       979.677
          266       979.668
        266.5       979.658
          267       979.649
        267.5       979.639
          268        979.63
        268.5        979.62
          269        979.61
        269.5         979.6
          270        979.59
        270.5       979.581
          271       979.571
        271.5       979.561
          272       979.551
        272.5        979.54
          273        979.53
        273.5        979.52
          274        979.51
        274.5       979.499
          275       979.489
        275.5       979.479
          276       979.468
        276.5       979.458
          277       979.447
        277.5       979.436
          278       979.426
        278.5       979.415
          279       979.404
        279.5       979.393
          280       979.382
        280.5       979.371
          281        979.36
        281.5       979.349
          282       979.338
        282.5       979.326
          283       979.315
        283.5       979.304
          284       979.292
        284.5       979.281
          285       979.269
        285.5       979.257
          286       979.246
        286.5       979.234
          287       979.222
        287.5        979.21
          288       979.198
        288.5       979.186
          289       979.174
        289.5       979.162
          290        979.15
        290.5       979.138
          291       979.125
        291.5       979.113
          292       979.101
        292.5       979.088
          293       979.076
        293.5       979.063
          294        979.05
        294.5       979.037
          295       979.025
        295.5       979.012
          296       978.999
        296.5       978.986
          297       978.973
        297.5        978.96
          298       978.946
        298.5       978.933
          299        978.92
        299.5       978.906
          300       978.893
        300.5       978.879
          301       978.866
        301.5       978.852
          302       978.838
        302.5       978.824
          303       978.811
        303.5       978.797
          304       978.783
        304.5       978.768
          305       978.754
        305.5        978.74
          306       978.726
        306.5       978.711
          307       978.697
        307.5       978.682
          308       978.668
        308.5       978.653
          309       978.638
        309.5       978.624
          310       978.609
        310.5       978.594
          311       978.579
        311.5       978.564
          312       978.549
        312.5       978.533
          313       978.518
        313.5       978.503
          314       978.487
        314.5       978.472
          315       978.456
        315.5        978.44
          316       978.425
        316.5       978.409
          317       978.393
        317.5       978.377
          318       978.361
        318.5       978.345
          319       978.329
        319.5       978.312
          320       978.296
        320.5        978.28
          321       978.263
        321.5       978.247
          322        978.23
        322.5       978.213
          323       978.196
        323.5        978.18
          324       978.163
        324.5       978.146
          325       978.128
        325.5       978.111
          326       978.094
        326.5       978.077
          327       978.059
        327.5       978.042
          328       978.024
        328.5       978.006
          329       977.989
        329.5       977.971
          330       977.953
        330.5       977.935
          331       977.917
        331.5       977.899
          332        977.88
        332.5       977.862
          333       977.844
        333.5       977.825
          334       977.807
        334.5       977.788
          335       977.769
        335.5        977.75
          336       977.732
        336.5       977.713
          337       977.693
        337.5       977.674
          338       977.655
        338.5       977.636
          339       977.616
        339.5       977.597
          340       977.577
        340.5       977.558
          341       977.538
        341.5       977.518
          342       977.498
        342.5       977.478
          343       977.458
        343.5       977.438
          344       977.418
        344.5       977.397
          345       977.377
        345.5       977.356
          346       977.336
        346.5       977.315
          347       977.294
        347.5       977.273
          348       977.252
        348.5       977.231
          349        977.21
        349.5       977.189
          350       977.167
        350.5       977.146
          351       977.124
        351.5       977.103
          352       977.081
        352.5       977.059
          353       977.037
        353.5       977.016
          354       976.993
        354.5       976.971
          355       976.949
        355.5       976.927
          356       976.904
        356.5       976.882
          357       976.859
        357.5       976.836
          358       976.814
        358.5       976.791
          359       976.768
        359.5       976.744
          360       976.721
        360.5       976.698
          361       976.675
        361.5       976.651
          362       976.628
        362.5       976.604
          363        976.58
        363.5       976.556
          364       976.532
        364.5       976.508
          365       976.484
        365.5        976.46
          366       976.435
        366.5       976.411
          367       976.386
        367.5       976.362
          368       976.337
        368.5       976.312
          369       976.287
        369.5       976.262
          370       976.237
        370.5       976.212
          371       976.186
        371.5       976.161
          372       976.135
        372.5        976.11
          373       976.084
        373.5       976.058
          374       976.032
        374.5       976.006
          375        975.98
        375.5       975.953
          376       975.927
        376.5         975.9
          377       975.874
        377.5       975.847
          378        975.82
        378.5       975.793
          379       975.766
        379.5       975.739
          380       975.712
        380.5       975.685
          381       975.657
        381.5        975.63
          382       975.602
        382.5       975.574
          383       975.547
        383.5       975.519
          384        975.49
        384.5       975.462
          385       975.434
        385.5       975.406
          386       975.377
        386.5       975.348
          387        975.32
        387.5       975.291
          388       975.262
        388.5       975.233
          389       975.204
        389.5       975.174
          390       975.145
        390.5       975.115
          391       975.086
        391.5       975.056
          392       975.026
        392.5       974.996
          393       974.966
        393.5       974.936
          394       974.906
        394.5       974.875
          395       974.845
        395.5       974.814
          396       974.783
        396.5       974.753
          397       974.722
        397.5        974.69
          398       974.659
        398.5       974.628
          399       974.596
        399.5       974.565
          400       974.533
        400.5       974.501
          401        974.47
        401.5       974.437
          402       974.405
        402.5       974.373
          403       974.341
        403.5       974.308
          404       974.276
        404.5       974.243
          405        974.21
        405.5       974.177
          406       974.144
        406.5       974.111
          407       974.077
        407.5       974.044
          408        974.01
        408.5       973.977
          409       973.943
        409.5       973.909
          410       973.875
        410.5       973.841
          411       973.806
        411.5       973.772
          412       973.737
        412.5       973.703
          413       973.668
        413.5       973.633
          414       973.598
        414.5       973.563
          415       973.527
        415.5       973.492
          416       973.456
        416.5       973.421
          417       973.385
        417.5       973.349
          418       973.313
        418.5       973.277
          419        973.24
        419.5       973.204
          420       973.167
        420.5       973.131
          421       973.094
        421.5       973.057
          422        973.02
        422.5       972.983
          423       972.945
        423.5       972.908
          424        972.87
        424.5       972.833
          425       972.795
        425.5       972.757
          426       972.719
        426.5        972.68
          427       972.642
        427.5       972.604
          428       972.565
        428.5       972.526
          429       972.487
        429.5       972.448
          430       972.409
        430.5        972.37
          431        972.33
        431.5       972.291
          432       972.251
        432.5       972.211
          433       972.171
        433.5       972.131
          434       972.091
        434.5        972.05
          435        972.01
        435.5       971.969
          436       971.928
        436.5       971.888
          437       971.846
        437.5       971.805
          438       971.764
        438.5       971.722
          439       971.681
        439.5       971.639
          440       971.597
        440.5       971.555
          441       971.513
        441.5       971.471
          442       971.428
        442.5       971.386
          443       971.343
        443.5         971.3
          444       971.257
        444.5       971.214
          445       971.171
        445.5       971.127
          446       971.084
        446.5        971.04
          447       970.996
        447.5       970.952
          448       970.908
        448.5       970.863
          449       970.819
        449.5       970.774
          450        970.73
        450.5       970.685
          451        970.64
        451.5       970.595
          452       970.549
        452.5       970.504
          453       970.458
        453.5       970.413
          454       970.367
        454.5       970.321
          455       970.274
        455.5       970.228
          456       970.182
        456.5       970.135
          457       970.088
        457.5       970.041
          458       969.994
        458.5       969.947
          459         969.9
        459.5       969.852
          460       969.804
        460.5       969.757
          461       969.709
        461.5        969.66
          462       969.612
        462.5       969.564
          463       969.515
        463.5       969.466
          464       969.417
        464.5       969.368
          465       969.319
        465.5        969.27
          466        969.22
        466.5       969.171
          467       969.121
        467.5       969.071
          468       969.021
        468.5       968.971
          469        968.92
        469.5       968.869
          470       968.819
        470.5       968.768
          471       968.717
        471.5       968.666
          472       968.614
        472.5       968.563
          473       968.511
        473.5       968.459
          474       968.407
        474.5       968.355
          475       968.303
        475.5        968.25
          476       968.198
        476.5       968.145
          477       968.092
        477.5       968.039
          478       967.985
        478.5       967.932
          479       967.878
        479.5       967.825
          480       967.771
        480.5       967.717
          481       967.662
        481.5       967.608
          482       967.553
        482.5       967.499
          483       967.444
        483.5       967.389
          484       967.333
        484.5       967.278
          485       967.222
        485.5       967.167
          486       967.111
        486.5       967.055
          487       966.998
        487.5       966.942
          488       966.886
        488.5       966.829
          489       966.772
        489.5       966.715
          490       966.658
        490.5         966.6
          491       966.543
        491.5       966.485
          492       966.427
        492.5       966.369
          493       966.311
        493.5       966.252
          494       966.194
        494.5       966.135
          495       966.076
        495.5       966.017
          496       965.958
        496.5       965.898
          497       965.839
        497.5       965.779
          498       965.719
        498.5       965.659
          499       965.599
        499.5       965.538
          500       965.477
        500.5       965.417
          501       965.356
        501.5       965.295
          502       965.233
        502.5       965.172
          503        965.11
        503.5       965.048
          504       964.986
        504.5       964.924
          505       964.861
        505.5       964.799
          506       964.736
        506.5       964.673
          507        964.61
        507.5       964.547
          508       964.483
        508.5        964.42
          509       964.356
        509.5       964.292
          510       964.228
        510.5       964.163
          511       964.099
        511.5       964.034
          512       963.969
        512.5       963.904
          513       963.839
        513.5       963.774
          514       963.708
        514.5       963.642
          515       963.576
        515.5        963.51
          516       963.444
        516.5       963.377
          517       963.311
        517.5       963.244
          518       963.177
        518.5       963.109
          519       963.042
        519.5       962.974
          520       962.906
        520.5       962.838
          521        962.77
        521.5       962.702
          522       962.633
        522.5       962.565
          523       962.496
        523.5       962.426
          524       962.357
        524.5       962.288
          525       962.218
        525.5       962.148
          526       962.078
        526.5       962.008
          527       961.937
        527.5       961.867
          528       961.796
        528.5       961.725
          529       961.654
        529.5       961.582
          530       961.511
        530.5       961.439
          531       961.367
        531.5       961.295
          532       961.223
        532.5        961.15
          533       961.077
        533.5       961.004
          534       960.931