# Probe 0 (0.05 0.05 0.005)
#       Probe             0
#        Time
          0.5     0.0399592
            1     0.0399592
          1.5     0.0399592
            2     0.0399592
          2.5     0.0399592
            3     0.0399592
          3.5     0.0399592
            4     0.0399592
          4.5     0.0399592
            5     0.0399592
          5.5     0.0399592
            6     0.0399592
          6.5     0.0399592
            7     0.0399592
          7.5     0.0399592
            8     0.0399592
          8.5     0.0399592
            9     0.0399592
          9.5     0.0399592
           10     0.0399592
         10.5     0.0399592
           11     0.0399592
         11.5     0.0399592
           12     0.0399592
         12.5     0.0399592
           13     0.0399592
         13.5     0.0399592
           14     0.0399592
         14.5     0.0399592
           15     0.0399592
         15.5     0.0399592
           16     0.0399592
         16.5     0.0399592
           17     0.0399592
         17.5     0.0399592
           18     0.0399592
         18.5     0.0399592
           19     0.0399592
         19.5     0.0399592
           20     0.0399592
         20.5     0.0399592
           21     0.0399592
         21.5     0.0399592
           22     0.0399592
         22.5     0.0399592
           23     0.0399592
         23.5     0.0399592
           24     0.0399592
         24.5     0.0399592
           25     0.0399592
         25.5     0.0399592
           26     0.0399592
         26.5     0.0399592
           27     0.0399592
         27.5     0.0399592
           28     0.0399592
         28.5     0.0399592
           29     0.0399592
         29.5     0.0399592
           30     0.0399592
         30.5     0.0399592
           31     0.0399592
         31.5     0.0399592
           32     0.0399592
         32.5     0.0399592
           33     0.0399592
         33.5     0.0399592
           34     0.0399592
         34.5     0.0399592
           35     0.0399592
         35.5     0.0399592
           36     0.0399592
         36.5     0.0399592
           37     0.0399592
         37.5     0.0399592
           38     0.0399592
         38.5     0.0399592
           39     0.0399592
         39.5     0.0399592
           40     0.0399592
         40.5     0.0399592
           41     0.0399592
         41.5     0.0399592
           42     0.0399592
         42.5     0.0399592
           43     0.0399592
         43.5     0.0399592
           44     0.0399592
         44.5     0.0399592
           45     0.0399592
         45.5     0.0399592
           46     0.0399592
         46.5     0.0399592
           47     0.0399592
         47.5     0.0399592
           48     0.0399592
         48.5     0.0399592
           49     0.0399592
         49.5     0.0399592
           50     0.0399592
         50.5     0.0399592
           51     0.0399592
         51.5     0.0399592
           52     0.0399592
         52.5     0.0399592
           53     0.0399592
         53.5     0.0399592
           54     0.0399592
         54.5     0.0399592
           55     0.0399592
         55.5     0.0399592
           56     0.0399591
         56.5     0.0399591
           57     0.0399591
         57.5     0.0399591
           58     0.0399591
         58.5     0.0399591
           59     0.0399591
         59.5     0.0399591
           60     0.0399591
         60.5     0.0399591
           61     0.0399591
         61.5     0.0399591
           62     0.0399591
         62.5     0.0399591
           63     0.0399591
         63.5     0.0399591
           64     0.0399591
         64.5     0.0399591
           65     0.0399591
         65.5     0.0399591
           66     0.0399591
         66.5      0.039959
           67      0.039959
         67.5      0.039959
           68      0.039959
         68.5      0.039959
           69      0.039959
         69.5      0.039959
           70      0.039959
         70.5      0.039959
           71      0.039959
         71.5      0.039959
           72      0.039959
         72.5      0.039959
           73      0.039959
         73.5      0.039959
           74     0.0399589
         74.5     0.0399589
           75     0.0399589
         75.5     0.0399589
           76     0.0399589
         76.5     0.0399589
           77     0.0399589
         77.5     0.0399589
           78     0.0399589
         78.5     0.0399589
           79     0.0399589
         79.5     0.0399588
           80     0.0399588
         80.5     0.0399588
           81     0.0399588
         81.5     0.0399588
           82     0.0399588
         82.5     0.0399588
           83     0.0399588
         83.5     0.0399588
           84     0.0399587
         84.5     0.0399587
           85     0.0399587
         85.5     0.0399587
           86     0.0399587
         86.5     0.0399587
           87     0.0399587
         87.5     0.0399587
           88     0.0399586
         88.5     0.0399586
           89     0.0399586
         89.5     0.0399586
           90     0.0399586
         90.5     0.0399586
           91     0.0399585
         91.5     0.0399585
           92     0.0399585
         92.5     0.0399585
           93     0.0399585
         93.5     0.0399585
           94     0.0399585
         94.5     0.0399584
           95     0.0399584
         95.5     0.0399584
           96     0.0399584
         96.5     0.0399584
           97     0.0399583
         97.5     0.0399583
           98     0.0399583
         98.5     0.0399583
           99     0.0399583
         99.5     0.0399582
          100     0.0399582
        100.5     0.0399582
          101     0.0399582
        101.5     0.0399582
          102     0.0399581
        102.5     0.0399581
          103     0.0399581
        103.5     0.0399581
          104     0.0399581
        104.5      0.039958
          105      0.039958
        105.5      0.039958
          106      0.039958
        106.5     0.0399579
          107     0.0399579
        107.5     0.0399579
          108     0.0399579
        108.5     0.0399578
          109     0.0399578
        109.5     0.0399578
          110     0.0399578
        110.5     0.0399577
          111     0.0399577
        111.5     0.0399577
          112     0.0399576
        112.5     0.0399576
          113     0.0399576
        113.5     0.0399576
          114     0.0399575
        114.5     0.0399575
          115     0.0399575
        115.5     0.0399574
          116     0.0399574
        116.5     0.0399574
          117     0.0399573
        117.5     0.0399573
          118     0.0399573
        118.5     0.0399572
          119     0.0399572
        119.5     0.0399572
          120     0.0399571
        120.5     0.0399571
          121     0.0399571
        121.5      0.039957
          122      0.039957
        122.5      0.039957
          123     0.0399569
        123.5     0.0399569
          124     0.0399568
        124.5     0.0399568
          125     0.0399568
        125.5     0.0399567
          126     0.0399567
        126.5     0.0399566
          127     0.0399566
        127.5     0.0399566
          128     0.0399565
        128.5     0.0399565
          129     0.0399564
        129.5     0.0399564
          130     0.0399563
        130.5     0.0399563
          131     0.0399562
        131.5     0.0399562
          132     0.0399562
        132.5     0.0399561
          133     0.0399561
        133.5      0.039956
          134      0.039956
        134.5     0.0399559
          135     0.0399559
        135.5     0.0399558
          136     0.0399558
        136.5     0.0399557
          137     0.0399557
        137.5     0.0399556
          138     0.0399555
        138.5     0.0399555
          139     0.0399554
        139.5     0.0399554
          140     0.0399553
        140.5     0.0399553
          141     0.0399552
        141.5     0.0399552
          142     0.0399551
        142.5      0.039955
          143      0.039955
        143.5     0.0399549
          144     0.0399549
        144.5     0.0399548
          145     0.0399547
        145.5     0.0399547
          146     0.0399546
        146.5     0.0399545
          147     0.0399545
        147.5     0.0399544
          148     0.0399544
        148.5     0.0399543
          149     0.0399542
        149.5     0.0399541
          150     0.0399541
        150.5      0.039954
          151     0.0399539
        151.5     0.0399539
          152     0.0399538
        152.5     0.0399537
          153     0.0399537
        153.5     0.0399536
          154     0.0399535
        154.5     0.0399534
          155     0.0399534
        155.5     0.0399533
          156     0.0399532
        156.5     0.0399531
          157      0.039953
        157.5      0.039953
          158     0.0399529
        158.5     0.0399528
          159     0.0399527
        159.5     0.0399526
          160     0.0399526
        160.5     0.0399525
          161     0.0399524
        161.5     0.0399523
          162     0.0399522
        162.5     0.0399521
          163      0.039952
        163.5      0.039952
          164     0.0399519
        164.5     0.0399518
          165     0.0399517
        165.5     0.0399516
          166     0.0399515
        166.5     0.0399514
          167     0.0399513
        167.5     0.0399512
          168     0.0399511
        168.5      0.039951
          169     0.0399509
        169.5     0.0399508
          170     0.0399507
        170.5     0.0399506
          171     0.0399505
        171.5     0.0399504
          172     0.0399503
        172.5     0.0399502
          173     0.0399501
        173.5       0.03995
          174     0.0399499
        174.5     0.0399498
          175     0.0399497
        175.5     0.0399496
          176     0.0399494
        176.5     0.0399493
          177     0.0399492
        177.5     0.0399491
          178      0.039949
        178.5     0.0399489
          179     0.0399488
        179.5     0.0399486
          180     0.0399485
        180.5     0.0399484
          181     0.0399483
        181.5     0.0399482
          182      0.039948
        182.5     0.0399479
          183     0.0399478
        183.5     0.0399477
          184     0.0399475
        184.5     0.0399474
          185     0.0399473
        185.5     0.0399472
          186      0.039947
        186.5     0.0399469
          187     0.0399468
        187.5     0.0399466
          188     0.0399465
        188.5     0.0399464
          189     0.0399462
        189.5     0.0399461
          190     0.0399459
        190.5     0.0399458
          191     0.0399457
        191.5     0.0399455
          192     0.0399454
        192.5     0.0399452
          193     0.0399451
        193.5     0.0399449
          194     0.0399448
        194.5     0.0399446
          195     0.0399445
        195.5     0.0399443
          196     0.0399442
        196.5      0.039944
          197     0.0399439
        197.5     0.0399437
          198     0.0399435
        198.5     0.0399434
          199     0.0399432
        199.5     0.0399431
          200     0.0399429
        200.5     0.0399427
          201     0.0399426
        201.5     0.0399424
          202     0.0399422
        202.5     0.0399421
          203     0.0399419
        203.5     0.0399417
          204     0.0399416
        204.5     0.0399414
          205     0.0399412
        205.5      0.039941
          206     0.0399408
        206.5     0.0399407
          207     0.0399405
        207.5     0.0399403
          208     0.0399401
        208.5     0.0399399
          209     0.0399398
        209.5     0.0399396
          210     0.0399394
        210.5     0.0399392
          211      0.039939
        211.5     0.0399388
          212     0.0399386
        212.5     0.0399384
          213     0.0399382
        213.5      0.039938
          214     0.0399378
        214.5     0.0399376
          215     0.0399374
        215.5     0.0399372
          216      0.039937
        216.5     0.0399368
          217     0.0399366
        217.5     0.0399364
          218     0.0399362
        218.5      0.039936
          219     0.0399357
        219.5     0.0399355
          220     0.0399353
        220.5     0.0399351
          221     0.0399349
        221.5     0.0399347
          222     0.0399344
        222.5     0.0399342
          223      0.039934
        223.5     0.0399338
          224     0.0399335
        224.5     0.0399333
          225     0.0399331
        225.5     0.0399328
          226     0.0399326
        226.5     0.0399324
          227     0.0399321
        227.5     0.0399319
          228     0.0399316
        228.5     0.0399314
          229     0.0399311
        229.5     0.0399309
          230     0.0399307
        230.5     0.0399304
          231     0.0399302
        231.5     0.0399299
          232     0.0399296
        232.5     0.0399294
          233     0.0399291
        233.5     0.0399289
          234     0.0399286
        234.5     0.0399283
          235     0.0399281
        235.5     0.0399278
          236     0.0399275
        236.5     0.0399273
          237      0.039927
        237.5     0.0399267
          238     0.0399265
        238.5     0.0399262
          239     0.0399259
        239.5     0.0399256
          240     0.0399253
        240.5     0.0399251
          241     0.0399248
        241.5     0.0399245
          242     0.0399242
        242.5     0.0399239
          243     0.0399236
        243.5     0.0399233
          244      0.039923
        244.5     0.0399227
          245     0.0399224
        245.5     0.0399221
          246     0.0399218
        246.5     0.0399215
          247     0.0399212
        247.5     0.0399209
          248     0.0399206
        248.5     0.0399203
          249       0.03992
        249.5     0.0399197
          250     0.0399193
        250.5      0.039919
          251     0.0399187
        251.5     0.0399184
          252      0.039918
        252.5     0.0399177
          253     0.0399174
        253.5     0.0399171
          254     0.0399167
        254.5     0.0399164
          255      0.039916
        255.5     0.0399157
          256     0.0399154
        256.5      0.039915
          257     0.0399147
        257.5     0.0399143
          258      0.039914
        258.5     0.0399136
          259     0.0399133
        259.5     0.0399129
          260     0.0399126
        260.5     0.0399122
          261     0.0399118
        261.5     0.0399115
          262     0.0399111
        262.5     0.0399107
          263     0.0399104
        263.5       0.03991
          264     0.0399096
        264.5     0.0399092
          265     0.0399089
        265.5     0.0399085
          266     0.0399081
        266.5     0.0399077
          267     0.0399073
        267.5     0.0399069
          268     0.0399065
        268.5     0.0399061
          269     0.0399058
        269.5     0.0399054
          270      0.039905
        270.5     0.0399045
          271     0.0399041
        271.5     0.0399037
          272     0.0399033
        272.5     0.0399029
          273     0.0399025
        273.5     0.0399021
          274     0.0399017
        274.5     0.0399012
          275     0.0399008
        275.5     0.0399004
          276        0.0399
        276.5     0.0398995
          277     0.0398991
        277.5     0.0398987
          278     0.0398982
        278.5     0.0398978
          279     0.0398973
        279.5     0.0398969
          280     0.0398965
        280.5      0.039896
          281     0.0398956
        281.5     0.0398951
          282     0.0398946
        282.5     0.0398942
          283     0.0398937
        283.5     0.0398933
          284     0.0398928
        284.5     0.0398923
          285     0.0398919
        285.5     0.0398914
          286     0.0398909
        286.5     0.0398904
          287     0.0398899
        287.5     0.0398895
          288      0.039889
        288.5     0.0398885
          289      0.039888
        289.5     0.0398875
          290      0.039887
        290.5     0.0398865
          291      0.039886
        291.5     0.0398855
          292      0.039885
        292.5     0.0398845
          293      0.039884
        293.5     0.0398835
          294     0.0398829
        294.5     0.0398824
          295     0.0398819
        295.5     0.0398814
          296     0.0398808
        296.5     0.0398803
          297     0.0398798
        297.5     0.0398793
          298     0.0398787
        298.5     0.0398782
          299     0.0398776
        299.5     0.0398771
          300     0.0398765
        300.5      0.039876
          301     0.0398754
        301.5     0.0398749
          302     0.0398743
        302.5     0.0398737
          303     0.0398732
        303.5     0.0398726
          304      0.039872
        304.5     0.0398715
          305     0.0398709
        305.5     0.0398703
          306     0.0398697
        306.5     0.0398691
          307     0.0398686
        307.5      0.039868
          308     0.0398674
        308.5     0.0398668
          309     0.0398662
        309.5     0.0398656
          310      0.039865
        310.5     0.0398644
          311     0.0398637
        311.5     0.0398631
          312     0.0398625
        312.5     0.0398619
          313     0.0398613
        313.5     0.0398606
          314       0.03986
        314.5     0.0398594
          315     0.0398587
        315.5     0.0398581
          316     0.0398575
        316.5     0.0398568
          317     0.0398562
        317.5     0.0398555
          318     0.0398549
        318.5     0.0398542
          319     0.0398536
        319.5     0.0398529
          320     0.0398522
        320.5     0.0398516
          321     0.0398509
        321.5     0.0398502
          322     0.0398495
        322.5     0.0398488
          323     0.0398482
        323.5     0.0398475
          324     0.0398468
        324.5     0.0398461
          325     0.0398454
        325.5     0.0398447
          326      0.039844
        326.5     0.0398433
          327     0.0398426
        327.5     0.0398419
          328     0.0398411
        328.5     0.0398404
          329     0.0398397
        329.5      0.039839
          330     0.0398382
        330.5     0.0398375
          331     0.0398368
        331.5      0.039836
          332     0.0398353
        332.5     0.0398345
          333     0.0398338
        333.5      0.039833
          334     0.0398323
        334.5     0.0398315
          335     0.0398308
        335.5       0.03983
          336     0.0398292
        336.5     0.0398285
          337     0.0398277
        337.5     0.0398269
          338     0.0398261
        338.5     0.0398253
          339     0.0398245
        339.5     0.0398237
          340     0.0398229
        340.5     0.0398221
          341     0.0398213
        341.5     0.0398205
          342     0.0398197
        342.5     0.0398189
          343     0.0398181
        343.5     0.0398173
          344     0.0398164
        344.5     0.0398156
          345     0.0398148
        345.5     0.0398139
          346     0.0398131
        346.5     0.0398123
          347     0.0398114
        347.5     0.0398106
          348     0.0398097
        348.5     0.0398088
          349      0.039808
        349.5     0.0398071
          350     0.0398062
        350.5     0.0398054
          351     0.0398045
        351.5     0.0398036
          352     0.0398027
        352.5     0.0398018
          353      0.039801
        353.5     0.0398001
          354     0.0397992
        354.5     0.0397983
          355     0.0397973
        355.5     0.0397964
          356     0.0397955
        356.5     0.0397946
          357     0.0397937
        357.5     0.0397928
          358     0.0397918
        358.5     0.0397909
          359       0.03979
        359.5      0.039789
          360     0.0397881
        360.5     0.0397871
          361     0.0397862
        361.5     0.0397852
          362     0.0397843
        362.5     0.0397833
          363     0.0397823
        363.5     0.0397813
          364     0.0397804
        364.5     0.0397794
          365     0.0397784
        365.5     0.0397774
          366     0.0397764
        366.5     0.0397754
          367     0.0397744
        367.5     0.0397734
          368     0.0397724
        368.5     0.0397714
          369     0.0397704
        369.5     0.0397694
          370     0.0397683
        370.5     0.0397673
          371     0.0397663
        371.5     0.0397652
          372     0.0397642
        372.5     0.0397632
          373     0.0397621
        373.5      0.039761
          374       0.03976
        374.5     0.0397589
          375     0.0397579
        375.5     0.0397568
          376     0.0397557
        376.5     0.0397546
          377     0.0397536
        377.5     0.0397525
          378     0.0397514
        378.5     0.0397503
          379     0.0397492
        379.5     0.0397481
          380      0.039747
        380.5     0.0397458
          381     0.0397447
        381.5     0.0397436
          382     0.0397425
        382.5     0.0397414
          383     0.0397402
        383.5     0.0397391
          384     0.0397379
        384.5     0.0397368
          385     0.0397356
        385.5     0.0397345
          386     0.0397333
        386.5     0.0397321
          387      0.039731
        387.5     0.0397298
          388     0.0397286
        388.5     0.0397274
          389     0.0397262
        389.5     0.0397251
          390     0.0397239
        390.5     0.0397227
          391     0.0397214
        391.5     0.0397202
          392      0.039719
        392.5     0.0397178
          393     0.0397166
        393.5     0.0397153
          394     0.0397141
        394.5     0.0397129
          395     0.0397116
        395.5     0.0397104
          396     0.0397091
        396.5     0.0397079
          397     0.0397066
        397.5     0.0397053
          398     0.0397041
        398.5     0.0397028
          399     0.0397015
        399.5     0.0397002
          400     0.0396989
        400.5     0.0396976
          401     0.0396963
        401.5      0.039695
          402     0.0396937
        402.5     0.0396924
          403     0.0396911
        403.5     0.0396898
          404     0.0396884
        404.5     0.0396871
          405     0.0396858
        405.5     0.0396844
          406     0.0396831
        406.5     0.0396817
          407     0.0396804
        407.5      0.039679
          408     0.0396776
        408.5     0.0396763
          409     0.0396749
        409.5     0.0396735
          410     0.0396721
        410.5     0.0396707
          411     0.0396693
        411.5     0.0396679
          412     0.0396665
        412.5     0.0396651
          413     0.0396637
        413.5     0.0396623
          414     0.0396608
        414.5     0.0396594
          415      0.039658
        415.5     0.0396565
          416     0.0396551
        416.5     0.0396536
          417     0.0396522
        417.5     0.0396507
          418     0.0396492
        418.5     0.0396478
          419     0.0396463
        419.5     0.0396448
          420     0.0396433
        420.5     0.0396418
          421     0.0396403
        421.5     0.0396388
          422     0.0396373
        422.5     0.0396358
          423     0.0396343
        423.5     0.0396327
          424     0.0396312
        424.5     0.0396297
          425     0.0396281
        425.5     0.0396266
          426      0.039625
        426.5     0.0396235
          427     0.0396219
        427.5     0.0396203
          428     0.0396188
        428.5     0.0396172
          429     0.0396156
        429.5      0.039614
          430     0.0396124
        430.5     0.0396108
          431     0.0396092
        431.5     0.0396076
          432      0.039606
        432.5     0.0396043
          433     0.0396027
        433.5     0.0396011
          434     0.0395994
        434.5     0.0395978
          435     0.0395961
        435.5     0.0395945
          436     0.0395928
        436.5     0.0395912
          437     0.0395895
        437.5     0.0395878
          438     0.0395861
        438.5     0.0395844
          439     0.0395827
        439.5      0.039581
          440     0.0395793
        440.5     0.0395776
          441     0.0395759
        441.5     0.0395742
          442     0.0395725
        442.5     0.0395707
          443      0.039569
        443.5     0.0395672
          444     0.0395655
        444.5     0.0395637
          445      0.039562
        445.5     0.0395602
          446     0.0395584
        446.5     0.0395566
          447     0.0395548
        447.5      0.039553
          448     0.0395512
        448.5     0.0395494
          449     0.0395476
        449.5     0.0395458
          450      0.039544
        450.5     0.0395422
          451     0.0395403
        451.5     0.0395385
          452     0.0395366
        452.5     0.0395348
          453     0.0395329
        453.5     0.0395311
          454     0.0395292
        454.5     0.0395273
          455     0.0395254
        455.5     0.0395236
          456     0.0395217
        456.5     0.0395198
          457     0.0395179
        457.5      0.039516
          458      0.039514
        458.5     0.0395121
          459     0.0395102
        459.5     0.0395082
          460     0.0395063
        460.5     0.0395044
          461     0.0395024
        461.5     0.0395004
          462     0.0394985
        462.5     0.0394965
          463     0.0394945
        463.5     0.0394925
          464     0.0394905
        464.5     0.0394885
          465     0.0394865
        465.5     0.0394845
          466     0.0394825
        466.5     0.0394805
          467     0.0394785
        467.5     0.0394764
          468     0.0394744
        468.5     0.0394723
          469     0.0394703
        469.5     0.0394682
          470     0.0394662
        470.5     0.0394641
          471      0.039462
        471.5     0.0394599
          472     0.0394578
        472.5     0.0394557
          473     0.0394536
        473.5     0.0394515
          474     0.0394494
        474.5     0.0394473
          475     0.0394451
        475.5      0.039443
          476     0.0394408
        476.5     0.0394387
          477     0.0394365
        477.5     0.0394344
          478     0.0394322
        478.5       0.03943
          479     0.0394278
        479.5     0.0394256
          480     0.0394235
        480.5     0.0394212
          481      0.039419
        481.5     0.0394168
          482     0.0394146
        482.5     0.0394124
          483     0.0394101
        483.5     0.0394079
          484     0.0394056
        484.5     0.0394034
          485     0.0394011
        485.5     0.0393988
          486     0.0393966
        486.5     0.0393943
          487      0.039392
        487.5     0.0393897
          488     0.0393874
        488.5     0.0393851
          489     0.0393828
        489.5     0.0393804
          490     0.0393781
        490.5     0.0393758
          491     0.0393734
        491.5     0.0393711
          492     0.0393687
        492.5     0.0393664
          493      0.039364
        493.5     0.0393616
          494     0.0393592
        494.5     0.0393568
          495     0.0393544
        495.5      0.039352
          496     0.0393496
        496.5     0.0393472
          497     0.0393448
        497.5     0.0393423
          498     0.0393399
        498.5     0.0393374
          499      0.039335
        499.5     0.0393325
          500       0.03933
        500.5     0.0393276
          501     0.0393251
        501.5     0.0393226
          502     0.0393201
        502.5     0.0393176
          503     0.0393151
        503.5     0.0393125
          504       0.03931
        504.5     0.0393075
          505     0.0393049
        505.5     0.0393024
          506     0.0392998
        506.5     0.0392973
          507     0.0392947
        507.5     0.0392921
          508     0.0392895
        508.5      0.039287
          509     0.0392844
        509.5     0.0392817
          510     0.0392791
        510.5     0.0392765
          511     0.0392739
        511.5     0.0392712
          512     0.0392686
        512.5      0.039266
          513     0.0392633
        513.5     0.0392606
          514      0.039258
        514.5     0.0392553
          515     0.0392526
        515.5     0.0392499
          516     0.0392472
        516.5     0.0392445
          517     0.0392418
        517.5      0.039239
          518     0.0392363
        518.5     0.0392336
          519     0.0392308
        519.5     0.0392281
          520     0.0392253
        520.5     0.0392225
          521     0.0392198
        521.5      0.039217
          522     0.0392142
        522.5     0.0392114
          523     0.0392086
        523.5     0.0392058
          524     0.0392029
        524.5     0.0392001
          525     0.0391973
        525.5     0.0391944
          526     0.0391916
        526.5     0.0391887
          527     0.0391858
        527.5      0.039183
          528     0.0391801
        528.5     0.0391772
          529     0.0391743
        529.5     0.0391714
          530     0.0391685
        530.5     0.0391655
          531     0.0391626
        531.5     0.0391597
          532     0.0391567
        532.5     0.0391538
          533     0.0391508
        533.5     0.0391478
          534     0.0391448