# Probe 0 (0.05 0.05 0.005)
#       Probe             0
#        Time
          0.5       981.923
            1       981.923
          1.5       981.923
            2       981.923
          2.5       981.923
            3       981.923
          3.5       981.923
            4       981.923
          4.5       981.923
            5       981.923
          5.5       981.923
            6       981.923
          6.5       981.923
            7       981.923
          7.5       981.923
            8       981.923
          8.5       981.923
            9       981.923
          9.5       981.923
           10       981.923
         10.5       981.923
           11       981.923
         11.5       981.923
           12       981.923
         12.5       981.923
           13       981.923
         13.5       981.923
           14       981.923
         14.5       981.923
           15       981.923
         15.5       981.923
           16       981.923
         16.5       981.923
           17       981.923
         17.5       981.923
           18       981.923
         18.5       981.923
           19       981.923
         19.5       981.923
           20       981.923
         20.5       981.923
           21       981.923
         21.5       981.923
           22       981.923
         22.5       981.923
           23       981.923
         23.5       981.923
           24       981.923
         24.5       981.923
           25       981.923
         25.5       981.923
           26       981.923
         26.5       981.923
           27       981.923
         27.5       981.923
           28       981.923
         28.5       981.923
           29       981.923
         29.5       981.923
           30       981.923
         30.5       981.923
           31       981.923
         31.5       981.923
           32       981.923
         32.5       981.923
           33       981.923
         33.5       981.923
           34       981.923
         34.5       981.923
           35       981.923
         35.5       981.923
           36       981.923
         36.5       981.923
           37       981.923
         37.5       981.923
           38       981.923
         38.5       981.923
           39       981.923
         39.5       981.923
           40       981.923
         40.5       981.923
           41       981.923
         41.5       981.923
           42       981.923
         42.5       981.923
           43       981.922
         43.5       981.922
           44       981.922
         44.5       981.922
           45       981.922
         45.5       981.922
           46       981.922
         46.5       981.922
           47       981.922
         47.5       981.922
           48       981.922
         48.5       981.922
           49       981.922
         49.5       981.922
           50       981.922
         50.5       981.922
           51       981.922
         51.5       981.922
           52       981.922
         52.5       981.921
           53       981.921
         53.5       981.921
           54       981.921
         54.5       981.921
           55       981.921
         55.5       981.921
           56       981.921
         56.5       981.921
           57       981.921
         57.5       981.921
           58       981.921
         58.5        981.92
           59        981.92
         59.5        981.92
           60        981.92
         60.5        981.92
           61        981.92
         61.5        981.92
           62        981.92
         62.5        981.92
           63       981.919
         63.5       981.919
           64       981.919
         64.5       981.919
           65       981.919
         65.5       981.919
           66       981.919
         66.5       981.918
           67       981.918
         67.5       981.918
           68       981.918
         68.5       981.918
           69       981.918
         69.5       981.918
           70       981.917
         70.5       981.917
           71       981.917
         71.5       981.917
           72       981.917
         72.5       981.916
           73       981.916
         73.5       981.916
           74       981.916
         74.5       981.916
           75       981.915
         75.5       981.915
           76       981.915
         76.5       981.915
           77       981.915
         77.5       981.914
           78       981.914
         78.5       981.914
           79       981.914
         79.5       981.913
           80       981.913
         80.5       981.913
           81       981.913
         81.5       981.912
           82       981.912
         82.5       981.912
           83       981.911
         83.5       981.911
           84       981.911
         84.5       981.911
           85        981.91
         85.5        981.91
           86        981.91
         86.5       981.909
           87       981.909
         87.5       981.909
           88       981.908
         88.5       981.908
           89       981.908
         89.5       981.907
           90       981.907
         90.5       981.907
           91       981.906
         91.5       981.906
           92       981.905
         92.5       981.905
           93       981.905
         93.5       981.904
           94       981.904
         94.5       981.903
           95       981.903
         95.5       981.903
           96       981.902
         96.5       981.902
           97       981.901
         97.5       981.901
           98         981.9
         98.5         981.9
           99       981.899
         99.5       981.899
          100       981.898
        100.5       981.898
          101       981.897
        101.5       981.897
          102       981.896
        102.5       981.896
          103       981.895
        103.5       981.895
          104       981.894
        104.5       981.894
          105       981.893
        105.5       981.892
          106       981.892
        106.5       981.891
          107       981.891
        107.5        981.89
          108       981.889
        108.5       981.889
          109       981.888
        109.5       981.887
          110       981.887
        110.5       981.886
          111       981.885
        111.5       981.885
          112       981.884
        112.5       981.883
          113       981.883
        113.5       981.882
          114       981.881
        114.5        981.88
          115        981.88
        115.5       981.879
          116       981.878
        116.5       981.877
          117       981.876
        117.5       981.876
          118       981.875
        118.5       981.874
          119       981.873
        119.5       981.872
          120       981.871
        120.5       981.871
          121        981.87
        121.5       981.869
          122       981.868
        122.5       981.867
          123       981.866
        123.5       981.865
          124       981.864
        124.5       981.863
          125       981.862
        125.5       981.861
          126        981.86
        126.5       981.859
          127       981.858
        127.5       981.857
          128       981.856
        128.5       981.855
          129       981.854
        129.5       981.853
          130       981.852
        130.5       981.851
          131        981.85
        131.5       981.848
          132       981.847
        132.5       981.846
          133       981.845
        133.5       981.844
          134       981.843
        134.5       981.841
          135        981.84
        135.5       981.839
          136       981.838
        136.5       981.836
          137       981.835
        137.5       981.834
          138       981.833
        138.5       981.831
          139        981.83
        139.5       981.828
          140       981.827
        140.5       981.826
          141       981.824
        141.5       981.823
          142       981.822
        142.5        981.82
          143       981.819
        143.5       981.817
          144       981.816
        144.5       981.814
          145       981.813
        145.5       981.811
          146        981.81
        146.5       981.808
          147       981.806
        147.5       981.805
          148       981.803
        148.5       981.802
          149         981.8
        149.5       981.798
          150       981.797
        150.5       981.795
          151       981.793
        151.5       981.791
          152        981.79
        152.5       981.788
          153       981.786
        153.5       981.784
          154       981.782
        154.5       981.781
          155       981.779
        155.5       981.777
          156       981.775
        156.5       981.773
          157       981.771
        157.5       981.769
          158       981.767
        158.5       981.765
          159       981.763
        159.5       981.761
          160       981.759
        160.5       981.757
          161       981.755
        161.5       981.753
          162       981.751
        162.5       981.749
          163       981.746
        163.5       981.744
          164       981.742
        164.5        981.74
          165       981.738
        165.5       981.735
          166       981.733
        166.5       981.731
          167       981.728
        167.5       981.726
          168       981.724
        168.5       981.721
          169       981.719
        169.5       981.716
          170       981.714
        170.5       981.712
          171       981.709
        171.5       981.706
          172       981.704
        172.5       981.701
          173       981.699
        173.5       981.696
          174       981.694
        174.5       981.691
          175       981.688
        175.5       981.686
          176       981.683
        176.5        981.68
          177       981.677
        177.5       981.674
          178       981.672
        178.5       981.669
          179       981.666
        179.5       981.663
          180        981.66
        180.5       981.657
          181       981.654
        181.5       981.651
          182       981.648
        182.5       981.645
          183       981.642
        183.5       981.639
          184       981.636
        184.5       981.633
          185        981.63
        185.5       981.626
          186       981.623
        186.5        981.62
          187       981.617
        187.5       981.613
          188        981.61
        188.5       981.607
          189       981.603
        189.5         981.6
          190       981.597
        190.5       981.593
          191        981.59
        191.5       981.586
          192       981.583
        192.5       981.579
          193       981.575
        193.5       981.572
          194       981.568
        194.5       981.564
          195       981.561
        195.5       981.557
          196       981.553
        196.5       981.549
          197       981.546
        197.5       981.542
          198       981.538
        198.5       981.534
          199        981.53
        199.5       981.526
          200       981.522
        200.5       981.518
          201       981.514
        201.5        981.51
          202       981.506
        202.5       981.502
          203       981.497
        203.5       981.493
          204       981.489
        204.5       981.485
          205        981.48
        205.5       981.476
          206       981.472
        206.5       981.467
          207       981.463
        207.5       981.458
          208       981.454
        208.5       981.449
          209       981.445
        209.5        981.44
          210       981.436
        210.5       981.431
          211       981.426
        211.5       981.421
          212       981.417
        212.5       981.412
          213       981.407
        213.5       981.402
          214       981.397
        214.5       981.392
          215       981.387
        215.5       981.382
          216       981.377
        216.5       981.372
          217       981.367
        217.5       981.362
          218       981.357
        218.5       981.352
          219       981.346
        219.5       981.341
          220       981.336
        220.5        981.33
          221       981.325
        221.5        981.32
          222       981.314
        222.5       981.309
          223       981.303
        223.5       981.297
          224       981.292
        224.5       981.286
          225        981.28
        225.5       981.275
          226       981.269
        226.5       981.263
          227       981.257
        227.5       981.251
          228       981.245
        228.5        981.24
          229       981.234
        229.5       981.227
          230       981.221
        230.5       981.215
          231       981.209
        231.5       981.203
          232       981.197
        232.5        981.19
          233       981.184
        233.5       981.178
          234       981.171
        234.5       981.165
          235       981.158
        235.5       981.152
          236       981.145
        236.5       981.139
          237       981.132
        237.5       981.125
          238       981.118
        238.5       981.112
          239       981.105
        239.5       981.098
          240       981.091
        240.5       981.084
          241       981.077
        241.5        981.07
          242       981.063
        242.5       981.056
          243       981.049
        243.5       981.041
          244       981.034
        244.5       981.027
          245        981.02
        245.5       981.012
          246       981.005
        246.5       980.997
          247        980.99
        247.5       980.982
          248       980.974
        248.5       980.967
          249       980.959
        249.5       980.951
          250       980.944
        250.5       980.936
          251       980.928
        251.5        980.92
          252       980.912
        252.5       980.904
          253       980.896
        253.5       980.887
          254       980.879
        254.5       980.871
          255       980.863
        255.5       980.854
          256       980.846
        256.5       980.838
          257       980.829
        257.5       980.821
          258       980.812
        258.5       980.803
          259       980.795
        259.5       980.786
          260       980.777
        260.5       980.768
          261       980.759
        261.5        980.75
          262       980.741
        262.5       980.732
          263       980.723
        263.5       980.714
          264       980.705
        264.5       980.696
          265       980.686
        265.5       980.677
          266       980.668
        266.5       980.658
          267       980.649
        267.5       980.639
          268        980.63
        268.5        980.62
          269        980.61
        269.5         980.6
          270        980.59
        270.5       980.581
          271       980.571
        271.5       980.561
          272       980.551
        272.5        980.54
          273        980.53
        273.5        980.52
          274        980.51
        274.5       980.499
          275       980.489
        275.5       980.479
          276       980.468
        276.5       980.458
          277       980.447
        277.5       980.436
          278       980.426
        278.5       980.415
          279       980.404
        279.5       980.393
          280       980.382
        280.5       980.371
          281        980.36
        281.5       980.349
          282       980.338
        282.5       980.326
          283       980.315
        283.5       980.304
          284       980.292
        284.5       980.281
          285       980.269
        285.5       980.257
          286       980.246
        286.5       980.234
          287       980.222
        287.5        980.21
          288       980.198
        288.5       980.186
          289       980.174
        289.5       980.162
          290        980.15
        290.5       980.138
          291       980.125
        291.5       980.113
          292       980.101
        292.5       980.088
          293       980.076
        293.5       980.063
          294        980.05
        294.5       980.037
          295       980.025
        295.5       980.012
          296       979.999
        296.5       979.986
          297       979.973
        297.5        979.96
          298       979.946
        298.5       979.933
          299        979.92
        299.5       979.906
          300       979.893
        300.5       979.879
          301       979.866
        301.5       979.852
          302       979.838
        302.5       979.824
          303       979.811
        303.5       979.797
          304       979.783
        304.5       979.768
          305       979.754
        305.5        979.74
          306       979.726
        306.5       979.711
          307       979.697
        307.5       979.682
          308       979.668
        308.5       979.653
          309       979.638
        309.5       979.624
          310       979.609
        310.5       979.594
          311       979.579
        311.5       979.564
          312       979.549
        312.5       979.533
          313       979.518
        313.5       979.503
          314       979.487
        314.5       979.472
          315       979.456
        315.5        979.44
          316       979.425
        316.5       979.409
          317       979.393
        317.5       979.377
          318       979.361
        318.5       979.345
          319       979.329
        319.5       979.312
          320       979.296
        320.5        979.28
          321       979.263
        321.5       979.247
          322        979.23
        322.5       979.213
          323       979.196
        323.5        979.18
          324       979.163
        324.5       979.146
          325       979.128
        325.5       979.111
          326       979.094
        326.5       979.077
          327       979.059
        327.5       979.042
          328       979.024
        328.5       979.006
          329       978.989
        329.5       978.971
          330       978.953
        330.5       978.935
          331       978.917
        331.5       978.899
          332        978.88
        332.5       978.862
          333       978.844
        333.5       978.825
          334       978.807
        334.5       978.788
          335       978.769
        335.5        978.75
          336       978.732
        336.5       978.713
          337       978.693
        337.5       978.674
          338       978.655
        338.5       978.636
          339       978.616
        339.5       978.597
          340       978.577
        340.5       978.558
          341       978.538
        341.5       978.518
          342       978.498
        342.5       978.478
          343       978.458
        343.5       978.438
          344       978.418
        344.5       978.397
          345       978.377
        345.5       978.356
          346       978.336
        346.5       978.315
          347       978.294
        347.5       978.273
          348       978.252
        348.5       978.231
          349        978.21
        349.5       978.189
          350       978.167
        350.5       978.146
          351       978.124
        351.5       978.103
          352       978.081
        352.5       978.059
          353       978.037
        353.5       978.016
          354       977.993
        354.5       977.971
          355       977.949
        355.5       977.927
          356       977.904
        356.5       977.882
          357       977.859
        357.5       977.836
          358       977.814
        358.5       977.791
          359       977.768
        359.5       977.744
          360       977.721
        360.5       977.698
          361       977.675
        361.5       977.651
          362       977.628
        362.5       977.604
          363        977.58
        363.5       977.556
          364       977.532
        364.5       977.508
          365       977.484
        365.5        977.46
          366       977.435
        366.5       977.411
          367       977.386
        367.5       977.362
          368       977.337
        368.5       977.312
          369       977.287
        369.5       977.262
          370       977.237
        370.5       977.212
          371       977.186
        371.5       977.161
          372       977.135
        372.5        977.11
          373       977.084
        373.5       977.058
          374       977.032
        374.5       977.006
          375        976.98
        375.5       976.953
          376       976.927
        376.5         976.9
          377       976.874
        377.5       976.847
          378        976.82
        378.5       976.793
          379       976.766
        379.5       976.739
          380       976.712
        380.5       976.685
          381       976.657
        381.5        976.63
          382       976.602
        382.5       976.574
          383       976.547
        383.5       976.519
          384        976.49
        384.5       976.462
          385       976.434
        385.5       976.406
          386       976.377
        386.5       976.348
          387        976.32
        387.5       976.291
          388       976.262
        388.5       976.233
          389       976.204
        389.5       976.174
          390       976.145
        390.5       976.115
          391       976.086
        391.5       976.056
          392       976.026
        392.5       975.996
          393       975.966
        393.5       975.936
          394       975.906
        394.5       975.875
          395       975.845
        395.5       975.814
          396       975.783
        396.5       975.753
          397       975.722
        397.5        975.69
          398       975.659
        398.5       975.628
          399       975.596
        399.5       975.565
          400       975.533
        400.5       975.501
          401        975.47
        401.5       975.437
          402       975.405
        402.5       975.373
          403       975.341
        403.5       975.308
          404       975.276
        404.5       975.243
          405        975.21
        405.5       975.177
          406       975.144
        406.5       975.111
          407       975.077
        407.5       975.044
          408        975.01
        408.5       974.977
          409       974.943
        409.5       974.909
          410       974.875
        410.5       974.841
          411       974.806
        411.5       974.772
          412       974.737
        412.5       974.703
          413       974.668
        413.5       974.633
          414       974.598
        414.5       974.563
          415       974.527
        415.5       974.492
          416       974.456
        416.5       974.421
          417       974.385
        417.5       974.349
          418       974.313
        418.5       974.277
          419        974.24
        419.5       974.204
          420       974.167
        420.5       974.131
          421       974.094
        421.5       974.057
          422        974.02
        422.5       973.983
          423       973.945
        423.5       973.908
          424        973.87
        424.5       973.833
          425       973.795
        425.5       973.757
          426       973.719
        426.5        973.68
          427       973.642
        427.5       973.604
          428       973.565
        428.5       973.526
          429       973.487
        429.5       973.448
          430       973.409
        430.5        973.37
          431        973.33
        431.5       973.291
          432       973.251
        432.5       973.211
          433       973.171
        433.5       973.131
          434       973.091
        434.5        973.05
          435        973.01
        435.5       972.969
          436       972.928
        436.5       972.888
          437       972.846
        437.5       972.805
          438       972.764
        438.5       972.722
          439       972.681
        439.5       972.639
          440       972.597
        440.5       972.555
          441       972.513
        441.5       972.471
          442       972.428
        442.5       972.386
          443       972.343
        443.5         972.3
          444       972.257
        444.5       972.214
          445       972.171
        445.5       972.127
          446       972.084
        446.5        972.04
          447       971.996
        447.5       971.952
          448       971.908
        448.5       971.863
          449       971.819
        449.5       971.774
          450        971.73
        450.5       971.685
          451        971.64
        451.5       971.595
          452       971.549
        452.5       971.504
          453       971.458
        453.5       971.413
          454       971.367
        454.5       971.321
          455       971.274
        455.5       971.228
          456       971.182
        456.5       971.135
          457       971.088
        457.5       971.041
          458       970.994
        458.5       970.947
          459         970.9
        459.5       970.852
          460       970.804
        460.5       970.757
          461       970.709
        461.5        970.66
          462       970.612
        462.5       970.564
          463       970.515
        463.5       970.466
          464       970.417
        464.5       970.368
          465       970.319
        465.5        970.27
          466        970.22
        466.5       970.171
          467       970.121
        467.5       970.071
          468       970.021
        468.5       969.971
          469        969.92
        469.5       969.869
          470       969.819
        470.5       969.768
          471       969.717
        471.5       969.666
          472       969.614
        472.5       969.563
          473       969.511
        473.5       969.459
          474       969.407
        474.5       969.355
          475       969.303
        475.5        969.25
          476       969.198
        476.5       969.145
          477       969.092
        477.5       969.039
          478       968.985
        478.5       968.932
          479       968.878
        479.5       968.825
          480       968.771
        480.5       968.717
          481       968.662
        481.5       968.608
          482       968.553
        482.5       968.499
          483       968.444
        483.5       968.389
          484       968.333
        484.5       968.278
          485       968.222
        485.5       968.167
          486       968.111
        486.5       968.055
          487       967.998
        487.5       967.942
          488       967.886
        488.5       967.829
          489       967.772
        489.5       967.715
          490       967.658
        490.5         967.6
          491       967.543
        491.5       967.485
          492       967.427
        492.5       967.369
          493       967.311
        493.5       967.252
          494       967.194
        494.5       967.135
          495       967.076
        495.5       967.017
          496       966.958
        496.5       966.898
          497       966.839
        497.5       966.779
          498       966.719
        498.5       966.659
          499       966.599
        499.5       966.538
          500       966.477
        500.5       966.417
          501       966.356
        501.5       966.295
          502       966.233
        502.5       966.172
          503        966.11
        503.5       966.048
          504       965.986
        504.5       965.924
          505       965.861
        505.5       965.799
          506       965.736
        506.5       965.673
          507        965.61
        507.5       965.547
          508       965.483
        508.5        965.42
          509       965.356
        509.5       965.292
          510       965.228
        510.5       965.163
          511       965.099
        511.5       965.034
          512       964.969
        512.5       964.904
          513       964.839
        513.5       964.774
          514       964.708
        514.5       964.642
          515       964.576
        515.5        964.51
          516       964.444
        516.5       964.377
          517       964.311
        517.5       964.244
          518       964.177
        518.5       964.109
          519       964.042
        519.5       963.974
          520       963.906
        520.5       963.838
          521        963.77
        521.5       963.702
          522       963.633
        522.5       963.565
          523       963.496
        523.5       963.426
          524       963.357
        524.5       963.288
          525       963.218
        525.5       963.148
          526       963.078
        526.5       963.008
          527       962.937
        527.5       962.867
          528       962.796
        528.5       962.725
          529       962.654
        529.5       962.582
          530       962.511
        530.5       962.439
          531       962.367
        531.5       962.295
          532       962.223
        532.5        962.15
          533       962.077
        533.5       962.004
          534       961.931