0.000000e+00 	28536.015003 
1.250000e+03 	28537.837880 
2.500000e+03 	28506.024342 
3.750000e+03 	28365.712631 
5.000000e+03 	28016.789652 
6.250000e+03 	27293.746206 
7.500000e+03 	26111.440272 
8.750000e+03 	24435.935039 
1.000000e+04 	22186.045728 
1.078692e+04 	20561.982420 
1.157384e+04 	18947.358914 
1.236076e+04 	17362.259785 
1.314768e+04 	15825.044676 
1.393460e+04 	14350.725006 
1.472152e+04 	12966.269925 
1.550844e+04 	11690.244335 
1.629536e+04 	10519.296272 
1.707066e+04 	9462.972710 
1.784596e+04 	8509.099265 
1.862126e+04 	7652.970186 
1.939656e+04 	6886.980803 
2.030115e+04 	6098.327734 
2.120574e+04 	5410.369190 
2.211033e+04 	4809.099594 
2.301493e+04 	4285.619574 
2.391952e+04 	3831.382227 
2.482411e+04 	3434.789612 
2.572870e+04 	3087.591045 
2.663329e+04 	2783.396630 
2.788329e+04 	2423.269523 
2.913329e+04 	2120.661896 
3.038329e+04 	1865.122607 
3.163329e+04 	1648.462558 
3.288329e+04 	1463.978918 
3.413329e+04 	1305.863405 
3.538329e+04 	1169.690759 
3.663329e+04 	1052.003039 
3.788329e+04 	949.887610 
3.913329e+04 	860.824797 
4.038329e+04 	782.871373 
4.163329e+04 	714.350496 
4.288329e+04 	653.849289 
4.413329e+04 	600.278877 
4.538329e+04 	552.711614 
4.663329e+04 	510.304387 
4.747497e+04 	484.294152 
4.831664e+04 	460.135050 
4.915832e+04 	437.667044 
5.000000e+04 	416.742905 
