# Probe 0 (0.05 0.05 0.005)
#       Probe             0
#        Time
          0.5       8.97623
            1       8.97623
          1.5       8.97623
            2       8.97623
          2.5       8.97623
            3       8.97623
          3.5       8.97623
            4       8.97623
          4.5       8.97623
            5       8.97623
          5.5       8.97623
            6       8.97623
          6.5       8.97623
            7       8.97623
          7.5       8.97623
            8       8.97623
          8.5       8.97623
            9       8.97623
          9.5       8.97623
           10       8.97623
         10.5       8.97623
           11       8.97623
         11.5       8.97623
           12       8.97623
         12.5       8.97623
           13       8.97623
         13.5       8.97623
           14       8.97623
         14.5       8.97623
           15       8.97623
         15.5       8.97623
           16       8.97623
         16.5       8.97623
           17       8.97623
         17.5       8.97623
           18       8.97623
         18.5       8.97623
           19       8.97623
         19.5       8.97623
           20       8.97623
         20.5       8.97623
           21       8.97623
         21.5       8.97623
           22       8.97623
         22.5       8.97623
           23       8.97623
         23.5       8.97623
           24       8.97623
         24.5       8.97623
           25       8.97623
         25.5       8.97623
           26       8.97623
         26.5       8.97623
           27       8.97623
         27.5       8.97623
           28       8.97623
         28.5       8.97623
           29       8.97623
         29.5       8.97623
           30       8.97623
         30.5       8.97623
           31       8.97623
         31.5       8.97623
           32       8.97623
         32.5       8.97623
           33       8.97623
         33.5       8.97623
           34       8.97623
         34.5       8.97623
           35       8.97623
         35.5       8.97623
           36       8.97623
         36.5       8.97623
           37       8.97623
         37.5       8.97623
           38       8.97623
         38.5       8.97623
           39       8.97623
         39.5       8.97623
           40       8.97623
         40.5       8.97623
           41       8.97623
         41.5       8.97623
           42       8.97623
         42.5       8.97623
           43       8.97623
         43.5       8.97623
           44       8.97623
         44.5       8.97623
           45       8.97623
         45.5       8.97623
           46       8.97623
         46.5       8.97623
           47       8.97623
         47.5       8.97623
           48       8.97623
         48.5       8.97623
           49       8.97623
         49.5       8.97623
           50       8.97623
         50.5       8.97623
           51       8.97623
         51.5       8.97623
           52       8.97623
         52.5       8.97623
           53       8.97623
         53.5       8.97623
           54       8.97623
         54.5       8.97623
           55       8.97623
         55.5       8.97623
           56       8.97623
         56.5       8.97623
           57       8.97623
         57.5       8.97623
           58       8.97623
         58.5       8.97623
           59       8.97623
         59.5       8.97623
           60       8.97623
         60.5       8.97623
           61       8.97623
         61.5       8.97623
           62       8.97623
         62.5       8.97623
           63       8.97623
         63.5       8.97623
           64       8.97623
         64.5       8.97623
           65       8.97623
         65.5       8.97623
           66       8.97623
         66.5       8.97623
           67       8.97623
         67.5       8.97623
           68       8.97623
         68.5       8.97623
           69       8.97623
         69.5       8.97623
           70       8.97622
         70.5       8.97622
           71       8.97622
         71.5       8.97622
           72       8.97622
         72.5       8.97622
           73       8.97622
         73.5       8.97622
           74       8.97622
         74.5       8.97622
           75       8.97622
         75.5       8.97622
           76       8.97622
         76.5       8.97622
           77       8.97622
         77.5       8.97622
           78       8.97622
         78.5       8.97622
           79       8.97622
         79.5       8.97622
           80       8.97622
         80.5       8.97622
           81       8.97622
         81.5       8.97622
           82       8.97622
         82.5       8.97622
           83       8.97622
         83.5       8.97622
           84       8.97622
         84.5       8.97622
           85       8.97622
         85.5       8.97622
           86       8.97621
         86.5       8.97621
           87       8.97621
         87.5       8.97621
           88       8.97621
         88.5       8.97621
           89       8.97621
         89.5       8.97621
           90       8.97621
         90.5       8.97621
           91       8.97621
         91.5       8.97621
           92       8.97621
         92.5       8.97621
           93       8.97621
         93.5       8.97621
           94       8.97621
         94.5       8.97621
           95       8.97621
         95.5       8.97621
           96        8.9762
         96.5        8.9762
           97        8.9762
         97.5        8.9762
           98        8.9762
         98.5        8.9762
           99        8.9762
         99.5        8.9762
          100        8.9762
        100.5        8.9762
          101        8.9762
        101.5        8.9762
          102        8.9762
        102.5        8.9762
          103        8.9762
        103.5       8.97619
          104       8.97619
        104.5       8.97619
          105       8.97619
        105.5       8.97619
          106       8.97619
        106.5       8.97619
          107       8.97619
        107.5       8.97619
          108       8.97619
        108.5       8.97619
          109       8.97619
        109.5       8.97619
          110       8.97618
        110.5       8.97618
          111       8.97618
        111.5       8.97618
          112       8.97618
        112.5       8.97618
          113       8.97618
        113.5       8.97618
          114       8.97618
        114.5       8.97618
          115       8.97617
        115.5       8.97617
          116       8.97617
        116.5       8.97617
          117       8.97617
        117.5       8.97617
          118       8.97617
        118.5       8.97617
          119       8.97617
        119.5       8.97617
          120       8.97616
        120.5       8.97616
          121       8.97616
        121.5       8.97616
          122       8.97616
        122.5       8.97616
          123       8.97616
        123.5       8.97616
          124       8.97615
        124.5       8.97615
          125       8.97615
        125.5       8.97615
          126       8.97615
        126.5       8.97615
          127       8.97615
        127.5       8.97614
          128       8.97614
        128.5       8.97614
          129       8.97614
        129.5       8.97614
          130       8.97614
        130.5       8.97614
          131       8.97613
        131.5       8.97613
          132       8.97613
        132.5       8.97613
          133       8.97613
        133.5       8.97613
          134       8.97613
        134.5       8.97612
          135       8.97612
        135.5       8.97612
          136       8.97612
        136.5       8.97612
          137       8.97612
        137.5       8.97611
          138       8.97611
        138.5       8.97611
          139       8.97611
        139.5       8.97611
          140       8.97611
        140.5        8.9761
          141        8.9761
        141.5        8.9761
          142        8.9761
        142.5        8.9761
          143       8.97609
        143.5       8.97609
          144       8.97609
        144.5       8.97609
          145       8.97609
        145.5       8.97608
          146       8.97608
        146.5       8.97608
          147       8.97608
        147.5       8.97608
          148       8.97607
        148.5       8.97607
          149       8.97607
        149.5       8.97607
          150       8.97606
        150.5       8.97606
          151       8.97606
        151.5       8.97606
          152       8.97606
        152.5       8.97605
          153       8.97605
        153.5       8.97605
          154       8.97605
        154.5       8.97604
          155       8.97604
        155.5       8.97604
          156       8.97604
        156.5       8.97603
          157       8.97603
        157.5       8.97603
          158       8.97603
        158.5       8.97602
          159       8.97602
        159.5       8.97602
          160       8.97601
        160.5       8.97601
          161       8.97601
        161.5       8.97601
          162         8.976
        162.5         8.976
          163         8.976
        163.5         8.976
          164       8.97599
        164.5       8.97599
          165       8.97599
        165.5       8.97598
          166       8.97598
        166.5       8.97598
          167       8.97597
        167.5       8.97597
          168       8.97597
        168.5       8.97596
          169       8.97596
        169.5       8.97596
          170       8.97595
        170.5       8.97595
          171       8.97595
        171.5       8.97594
          172       8.97594
        172.5       8.97594
          173       8.97593
        173.5       8.97593
          174       8.97593
        174.5       8.97592
          175       8.97592
        175.5       8.97592
          176       8.97591
        176.5       8.97591
          177       8.97591
        177.5        8.9759
          178        8.9759
        178.5       8.97589
          179       8.97589
        179.5       8.97589
          180       8.97588
        180.5       8.97588
          181       8.97588
        181.5       8.97587
          182       8.97587
        182.5       8.97586
          183       8.97586
        183.5       8.97586
          184       8.97585
        184.5       8.97585
          185       8.97584
        185.5       8.97584
          186       8.97583
        186.5       8.97583
          187       8.97583
        187.5       8.97582
          188       8.97582
        188.5       8.97581
          189       8.97581
        189.5        8.9758
          190        8.9758
        190.5       8.97579
          191       8.97579
        191.5       8.97579
          192       8.97578
        192.5       8.97578
          193       8.97577
        193.5       8.97577
          194       8.97576
        194.5       8.97576
          195       8.97575
        195.5       8.97575
          196       8.97574
        196.5       8.97574
          197       8.97573
        197.5       8.97573
          198       8.97572
        198.5       8.97572
          199       8.97571
        199.5       8.97571
          200        8.9757
        200.5       8.97569
          201       8.97569
        201.5       8.97568
          202       8.97568
        202.5       8.97567
          203       8.97567
        203.5       8.97566
          204       8.97566
        204.5       8.97565
          205       8.97564
        205.5       8.97564
          206       8.97563
        206.5       8.97563
          207       8.97562
        207.5       8.97562
          208       8.97561
        208.5        8.9756
          209        8.9756
        209.5       8.97559
          210       8.97559
        210.5       8.97558
          211       8.97557
        211.5       8.97557
          212       8.97556
        212.5       8.97555
          213       8.97555
        213.5       8.97554
          214       8.97553
        214.5       8.97553
          215       8.97552
        215.5       8.97551
          216       8.97551
        216.5        8.9755
          217       8.97549
        217.5       8.97549
          218       8.97548
        218.5       8.97547
          219       8.97547
        219.5       8.97546
          220       8.97545
        220.5       8.97545
          221       8.97544
        221.5       8.97543
          222       8.97542
        222.5       8.97542
          223       8.97541
        223.5        8.9754
          224       8.97539
        224.5       8.97539
          225       8.97538
        225.5       8.97537
          226       8.97536
        226.5       8.97536
          227       8.97535
        227.5       8.97534
          228       8.97533
        228.5       8.97533
          229       8.97532
        229.5       8.97531
          230        8.9753
        230.5       8.97529
          231       8.97528
        231.5       8.97528
          232       8.97527
        232.5       8.97526
          233       8.97525
        233.5       8.97524
          234       8.97523
        234.5       8.97523
          235       8.97522
        235.5       8.97521
          236        8.9752
        236.5       8.97519
          237       8.97518
        237.5       8.97517
          238       8.97516
        238.5       8.97516
          239       8.97515
        239.5       8.97514
          240       8.97513
        240.5       8.97512
          241       8.97511
        241.5        8.9751
          242       8.97509
        242.5       8.97508
          243       8.97507
        243.5       8.97506
          244       8.97505
        244.5       8.97504
          245       8.97503
        245.5       8.97502
          246       8.97501
        246.5         8.975
          247       8.97499
        247.5       8.97498
          248       8.97497
        248.5       8.97496
          249       8.97495
        249.5       8.97494
          250       8.97493
        250.5       8.97492
          251       8.97491
        251.5        8.9749
          252       8.97489
        252.5       8.97488
          253       8.97487
        253.5       8.97486
          254       8.97485
        254.5       8.97484
          255       8.97482
        255.5       8.97481
          256        8.9748
        256.5       8.97479
          257       8.97478
        257.5       8.97477
          258       8.97476
        258.5       8.97475
          259       8.97473
        259.5       8.97472
          260       8.97471
        260.5        8.9747
          261       8.97469
        261.5       8.97468
          262       8.97466
        262.5       8.97465
          263       8.97464
        263.5       8.97463
          264       8.97462
        264.5        8.9746
          265       8.97459
        265.5       8.97458
          266       8.97457
        266.5       8.97455
          267       8.97454
        267.5       8.97453
          268       8.97451
        268.5        8.9745
          269       8.97449
        269.5       8.97448
          270       8.97446
        270.5       8.97445
          271       8.97444
        271.5       8.97442
          272       8.97441
        272.5        8.9744
          273       8.97438
        273.5       8.97437
          274       8.97436
        274.5       8.97434
          275       8.97433
        275.5       8.97431
          276        8.9743
        276.5       8.97429
          277       8.97427
        277.5       8.97426
          278       8.97424
        278.5       8.97423
          279       8.97422
        279.5        8.9742
          280       8.97419
        280.5       8.97417
          281       8.97416
        281.5       8.97414
          282       8.97413
        282.5       8.97411
          283        8.9741
        283.5       8.97408
          284       8.97407
        284.5       8.97405
          285       8.97404
        285.5       8.97402
          286         8.974
        286.5       8.97399
          287       8.97397
        287.5       8.97396
          288       8.97394
        288.5       8.97393
          289       8.97391
        289.5       8.97389
          290       8.97388
        290.5       8.97386
          291       8.97384
        291.5       8.97383
          292       8.97381
        292.5        8.9738
          293       8.97378
        293.5       8.97376
          294       8.97375
        294.5       8.97373
          295       8.97371
        295.5       8.97369
          296       8.97368
        296.5       8.97366
          297       8.97364
        297.5       8.97362
          298       8.97361
        298.5       8.97359
          299       8.97357
        299.5       8.97355
          300       8.97354
        300.5       8.97352
          301        8.9735
        301.5       8.97348
          302       8.97346
        302.5       8.97344
          303       8.97343
        303.5       8.97341
          304       8.97339
        304.5       8.97337
          305       8.97335
        305.5       8.97333
          306       8.97331
        306.5       8.97329
          307       8.97328
        307.5       8.97326
          308       8.97324
        308.5       8.97322
          309        8.9732
        309.5       8.97318
          310       8.97316
        310.5       8.97314
          311       8.97312
        311.5        8.9731
          312       8.97308
        312.5       8.97306
          313       8.97304
        313.5       8.97302
          314         8.973
        314.5       8.97298
          315       8.97295
        315.5       8.97293
          316       8.97291
        316.5       8.97289
          317       8.97287
        317.5       8.97285
          318       8.97283
        318.5       8.97281
          319       8.97279
        319.5       8.97276
          320       8.97274
        320.5       8.97272
          321        8.9727
        321.5       8.97268
          322       8.97265
        322.5       8.97263
          323       8.97261
        323.5       8.97259
          324       8.97256
        324.5       8.97254
          325       8.97252
        325.5        8.9725
          326       8.97247
        326.5       8.97245
          327       8.97243
        327.5        8.9724
          328       8.97238
        328.5       8.97236
          329       8.97233
        329.5       8.97231
          330       8.97229
        330.5       8.97226
          331       8.97224
        331.5       8.97221
          332       8.97219
        332.5       8.97216
          333       8.97214
        333.5       8.97212
          334       8.97209
        334.5       8.97207
          335       8.97204
        335.5       8.97202
          336       8.97199
        336.5       8.97197
          337       8.97194
        337.5       8.97191
          338       8.97189
        338.5       8.97186
          339       8.97184
        339.5       8.97181
          340       8.97179
        340.5       8.97176
          341       8.97173
        341.5       8.97171
          342       8.97168
        342.5       8.97165
          343       8.97163
        343.5        8.9716
          344       8.97157
        344.5       8.97155
          345       8.97152
        345.5       8.97149
          346       8.97146
        346.5       8.97144
          347       8.97141
        347.5       8.97138
          348       8.97135
        348.5       8.97132
          349        8.9713
        349.5       8.97127
          350       8.97124
        350.5       8.97121
          351       8.97118
        351.5       8.97115
          352       8.97112
        352.5        8.9711
          353       8.97107
        353.5       8.97104
          354       8.97101
        354.5       8.97098
          355       8.97095
        355.5       8.97092
          356       8.97089
        356.5       8.97086
          357       8.97083
        357.5        8.9708
          358       8.97077
        358.5       8.97074
          359       8.97071
        359.5       8.97068
          360       8.97065
        360.5       8.97061
          361       8.97058
        361.5       8.97055
          362       8.97052
        362.5       8.97049
          363       8.97046
        363.5       8.97043
          364       8.97039
        364.5       8.97036
          365       8.97033
        365.5        8.9703
          366       8.97026
        366.5       8.97023
          367        8.9702
        367.5       8.97017
          368       8.97013
        368.5        8.9701
          369       8.97007
        369.5       8.97003
          370          8.97
        370.5       8.96997
          371       8.96993
        371.5        8.9699
          372       8.96986
        372.5       8.96983
          373        8.9698
        373.5       8.96976
          374       8.96973
        374.5       8.96969
          375       8.96966
        375.5       8.96962
          376       8.96959
        376.5       8.96955
          377       8.96952
        377.5       8.96948
          378       8.96944
        378.5       8.96941
          379       8.96937
        379.5       8.96934
          380        8.9693
        380.5       8.96926
          381       8.96923
        381.5       8.96919
          382       8.96915
        382.5       8.96912
          383       8.96908
        383.5       8.96904
          384         8.969
        384.5       8.96897
          385       8.96893
        385.5       8.96889
          386       8.96885
        386.5       8.96881
          387       8.96878
        387.5       8.96874
          388        8.9687
        388.5       8.96866
          389       8.96862
        389.5       8.96858
          390       8.96854
        390.5        8.9685
          391       8.96846
        391.5       8.96842
          392       8.96838
        392.5       8.96834
          393        8.9683
        393.5       8.96826
          394       8.96822
        394.5       8.96818
          395       8.96814
        395.5        8.9681
          396       8.96806
        396.5       8.96802
          397       8.96798
        397.5       8.96794
          398       8.96789
        398.5       8.96785
          399       8.96781
        399.5       8.96777
          400       8.96773
        400.5       8.96768
          401       8.96764
        401.5        8.9676
          402       8.96756
        402.5       8.96751
          403       8.96747
        403.5       8.96743
          404       8.96738
        404.5       8.96734
          405       8.96729
        405.5       8.96725
          406       8.96721
        406.5       8.96716
          407       8.96712
        407.5       8.96707
          408       8.96703
        408.5       8.96698
          409       8.96694
        409.5       8.96689
          410       8.96685
        410.5        8.9668
          411       8.96675
        411.5       8.96671
          412       8.96666
        412.5       8.96662
          413       8.96657
        413.5       8.96652
          414       8.96648
        414.5       8.96643
          415       8.96638
        415.5       8.96633
          416       8.96629
        416.5       8.96624
          417       8.96619
        417.5       8.96614
          418        8.9661
        418.5       8.96605
          419         8.966
        419.5       8.96595
          420        8.9659
        420.5       8.96585
          421        8.9658
        421.5       8.96575
          422        8.9657
        422.5       8.96565
          423        8.9656
        423.5       8.96555
          424        8.9655
        424.5       8.96545
          425        8.9654
        425.5       8.96535
          426        8.9653
        426.5       8.96525
          427        8.9652
        427.5       8.96515
          428       8.96509
        428.5       8.96504
          429       8.96499
        429.5       8.96494
          430       8.96489
        430.5       8.96483
          431       8.96478
        431.5       8.96473
          432       8.96467
        432.5       8.96462
          433       8.96457
        433.5       8.96451
          434       8.96446
        434.5       8.96441
          435       8.96435
        435.5        8.9643
          436       8.96424
        436.5       8.96419
          437       8.96413
        437.5       8.96408
          438       8.96402
        438.5       8.96397
          439       8.96391
        439.5       8.96386
          440        8.9638
        440.5       8.96374
          441       8.96369
        441.5       8.96363
          442       8.96357
        442.5       8.96352
          443       8.96346
        443.5        8.9634
          444       8.96334
        444.5       8.96329
          445       8.96323
        445.5       8.96317
          446       8.96311
        446.5       8.96305
          447       8.96299
        447.5       8.96293
          448       8.96288
        448.5       8.96282
          449       8.96276
        449.5        8.9627
          450       8.96264
        450.5       8.96258
          451       8.96252
        451.5       8.96246
          452       8.96239
        452.5       8.96233
          453       8.96227
        453.5       8.96221
          454       8.96215
        454.5       8.96209
          455       8.96203
        455.5       8.96196
          456        8.9619
        456.5       8.96184
          457       8.96178
        457.5       8.96171
          458       8.96165
        458.5       8.96159
          459       8.96152
        459.5       8.96146
          460        8.9614
        460.5       8.96133
          461       8.96127
        461.5        8.9612
          462       8.96114
        462.5       8.96107
          463       8.96101
        463.5       8.96094
          464       8.96088
        464.5       8.96081
          465       8.96074
        465.5       8.96068
          466       8.96061
        466.5       8.96054
          467       8.96048
        467.5       8.96041
          468       8.96034
        468.5       8.96028
          469       8.96021
        469.5       8.96014
          470       8.96007
        470.5          8.96
          471       8.95993
        471.5       8.95987
          472        8.9598
        472.5       8.95973
          473       8.95966
        473.5       8.95959
          474       8.95952
        474.5       8.95945
          475       8.95938
        475.5       8.95931
          476       8.95924
        476.5       8.95917
          477       8.95909
        477.5       8.95902
          478       8.95895
        478.5       8.95888
          479       8.95881
        479.5       8.95874
          480       8.95866
        480.5       8.95859
          481       8.95852
        481.5       8.95844
          482       8.95837
        482.5        8.9583
          483       8.95822
        483.5       8.95815
          484       8.95807
        484.5         8.958
          485       8.95793
        485.5       8.95785
          486       8.95778
        486.5        8.9577
          487       8.95762
        487.5       8.95755
          488       8.95747
        488.5        8.9574
          489       8.95732
        489.5       8.95724
          490       8.95717
        490.5       8.95709
          491       8.95701
        491.5       8.95693
          492       8.95685
        492.5       8.95678
          493        8.9567
        493.5       8.95662
          494       8.95654
        494.5       8.95646
          495       8.95638
        495.5        8.9563
          496       8.95622
        496.5       8.95614
          497       8.95606
        497.5       8.95598
          498        8.9559
        498.5       8.95582
          499       8.95574
        499.5       8.95566
          500       8.95558
        500.5       8.95549
          501       8.95541
        501.5       8.95533
          502       8.95525
        502.5       8.95516
          503       8.95508
        503.5         8.955
          504       8.95491
        504.5       8.95483
          505       8.95474
        505.5       8.95466
          506       8.95458
        506.5       8.95449
          507       8.95441
        507.5       8.95432
          508       8.95423
        508.5       8.95415
          509       8.95406
        509.5       8.95398
          510       8.95389
        510.5        8.9538
          511       8.95372
        511.5       8.95363
          512       8.95354
        512.5       8.95345
          513       8.95336
        513.5       8.95328
          514       8.95319
        514.5        8.9531
          515       8.95301
        515.5       8.95292
          516       8.95283
        516.5       8.95274
          517       8.95265
        517.5       8.95256
          518       8.95247
        518.5       8.95238
          519       8.95229
        519.5        8.9522
          520        8.9521
        520.5       8.95201
          521       8.95192
        521.5       8.95183
          522       8.95174
        522.5       8.95164
          523       8.95155
        523.5       8.95146
          524       8.95136
        524.5       8.95127
          525       8.95117
        525.5       8.95108
          526       8.95098
        526.5       8.95089
          527       8.95079
        527.5        8.9507
          528        8.9506
        528.5       8.95051
          529       8.95041
        529.5       8.95031
          530       8.95022
        530.5       8.95012
          531       8.95002
        531.5       8.94992
          532       8.94983
        532.5       8.94973
          533       8.94963
        533.5       8.94953
          534       8.94943