# Probe 0 (0.05 0.05 0.005)
#       Probe             0
#        Time
          0.5   9.46744e+08
            1   9.46744e+08
          1.5   9.46744e+08
            2   9.46744e+08
          2.5   9.46744e+08
            3   9.46744e+08
          3.5   9.46744e+08
            4   9.46744e+08
          4.5   9.46744e+08
            5   9.46744e+08
          5.5   9.46744e+08
            6   9.46744e+08
          6.5   9.46744e+08
            7   9.46744e+08
          7.5   9.46744e+08
            8   9.46744e+08
          8.5   9.46744e+08
            9   9.46744e+08
          9.5   9.46744e+08
           10   9.46744e+08
         10.5   9.46744e+08
           11   9.46744e+08
         11.5   9.46744e+08
           12   9.46744e+08
         12.5   9.46744e+08
           13   9.46744e+08
         13.5   9.46744e+08
           14   9.46744e+08
         14.5   9.46744e+08
           15   9.46744e+08
         15.5   9.46744e+08
           16   9.46744e+08
         16.5   9.46744e+08
           17   9.46744e+08
         17.5   9.46744e+08
           18   9.46744e+08
         18.5   9.46744e+08
           19   9.46744e+08
         19.5   9.46744e+08
           20   9.46744e+08
         20.5   9.46744e+08
           21   9.46744e+08
         21.5   9.46744e+08
           22   9.46744e+08
         22.5   9.46744e+08
           23   9.46744e+08
         23.5   9.46744e+08
           24   9.46744e+08
         24.5   9.46744e+08
           25   9.46744e+08
         25.5   9.46744e+08
           26   9.46744e+08
         26.5   9.46744e+08
           27   9.46744e+08
         27.5   9.46744e+08
           28   9.46744e+08
         28.5   9.46744e+08
           29   9.46744e+08
         29.5   9.46744e+08
           30   9.46744e+08
         30.5   9.46744e+08
           31   9.46744e+08
         31.5   9.46744e+08
           32   9.46744e+08
         32.5   9.46744e+08
           33   9.46744e+08
         33.5   9.46743e+08
           34   9.46743e+08
         34.5   9.46743e+08
           35   9.46743e+08
         35.5   9.46743e+08
           36   9.46743e+08
         36.5   9.46743e+08
           37   9.46743e+08
         37.5   9.46743e+08
           38   9.46743e+08
         38.5   9.46743e+08
           39   9.46743e+08
         39.5   9.46743e+08
           40   9.46743e+08
         40.5   9.46742e+08
           41   9.46742e+08
         41.5   9.46742e+08
           42   9.46742e+08
         42.5   9.46742e+08
           43   9.46742e+08
         43.5   9.46742e+08
           44   9.46742e+08
         44.5   9.46742e+08
           45   9.46741e+08
         45.5   9.46741e+08
           46   9.46741e+08
         46.5   9.46741e+08
           47   9.46741e+08
         47.5   9.46741e+08
           48   9.46741e+08
         48.5    9.4674e+08
           49    9.4674e+08
         49.5    9.4674e+08
           50    9.4674e+08
         50.5    9.4674e+08
           51    9.4674e+08
         51.5   9.46739e+08
           52   9.46739e+08
         52.5   9.46739e+08
           53   9.46739e+08
         53.5   9.46738e+08
           54   9.46738e+08
         54.5   9.46738e+08
           55   9.46738e+08
         55.5   9.46738e+08
           56   9.46737e+08
         56.5   9.46737e+08
           57   9.46737e+08
         57.5   9.46737e+08
           58   9.46736e+08
         58.5   9.46736e+08
           59   9.46736e+08
         59.5   9.46735e+08
           60   9.46735e+08
         60.5   9.46735e+08
           61   9.46734e+08
         61.5   9.46734e+08
           62   9.46734e+08
         62.5   9.46733e+08
           63   9.46733e+08
         63.5   9.46733e+08
           64   9.46732e+08
         64.5   9.46732e+08
           65   9.46732e+08
         65.5   9.46731e+08
           66   9.46731e+08
         66.5    9.4673e+08
           67    9.4673e+08
         67.5   9.46729e+08
           68   9.46729e+08
         68.5   9.46729e+08
           69   9.46728e+08
         69.5   9.46728e+08
           70   9.46727e+08
         70.5   9.46727e+08
           71   9.46726e+08
         71.5   9.46726e+08
           72   9.46725e+08
         72.5   9.46724e+08
           73   9.46724e+08
         73.5   9.46723e+08
           74   9.46723e+08
         74.5   9.46722e+08
           75   9.46722e+08
         75.5   9.46721e+08
           76    9.4672e+08
         76.5    9.4672e+08
           77   9.46719e+08
         77.5   9.46718e+08
           78   9.46718e+08
         78.5   9.46717e+08
           79   9.46716e+08
         79.5   9.46716e+08
           80   9.46715e+08
         80.5   9.46714e+08
           81   9.46713e+08
         81.5   9.46713e+08
           82   9.46712e+08
         82.5   9.46711e+08
           83    9.4671e+08
         83.5   9.46709e+08
           84   9.46708e+08
         84.5   9.46708e+08
           85   9.46707e+08
         85.5   9.46706e+08
           86   9.46705e+08
         86.5   9.46704e+08
           87   9.46703e+08
         87.5   9.46702e+08
           88   9.46701e+08
         88.5     9.467e+08
           89   9.46699e+08
         89.5   9.46698e+08
           90   9.46697e+08
         90.5   9.46696e+08
           91   9.46695e+08
         91.5   9.46694e+08
           92   9.46693e+08
         92.5   9.46691e+08
           93    9.4669e+08
         93.5   9.46689e+08
           94   9.46688e+08
         94.5   9.46687e+08
           95   9.46686e+08
         95.5   9.46684e+08
           96   9.46683e+08
         96.5   9.46682e+08
           97    9.4668e+08
         97.5   9.46679e+08
           98   9.46678e+08
         98.5   9.46676e+08
           99   9.46675e+08
         99.5   9.46674e+08
          100   9.46672e+08
        100.5   9.46671e+08
          101   9.46669e+08
        101.5   9.46668e+08
          102   9.46666e+08
        102.5   9.46665e+08
          103   9.46663e+08
        103.5   9.46661e+08
          104    9.4666e+08
        104.5   9.46658e+08
          105   9.46656e+08
        105.5   9.46655e+08
          106   9.46653e+08
        106.5   9.46651e+08
          107    9.4665e+08
        107.5   9.46648e+08
          108   9.46646e+08
        108.5   9.46644e+08
          109   9.46642e+08
        109.5    9.4664e+08
          110   9.46638e+08
        110.5   9.46637e+08
          111   9.46635e+08
        111.5   9.46633e+08
          112   9.46631e+08
        112.5   9.46629e+08
          113   9.46626e+08
        113.5   9.46624e+08
          114   9.46622e+08
        114.5    9.4662e+08
          115   9.46618e+08
        115.5   9.46616e+08
          116   9.46613e+08
        116.5   9.46611e+08
          117   9.46609e+08
        117.5   9.46606e+08
          118   9.46604e+08
        118.5   9.46602e+08
          119   9.46599e+08
        119.5   9.46597e+08
          120   9.46594e+08
        120.5   9.46592e+08
          121   9.46589e+08
        121.5   9.46587e+08
          122   9.46584e+08
        122.5   9.46581e+08
          123   9.46579e+08
        123.5   9.46576e+08
          124   9.46573e+08
        124.5    9.4657e+08
          125   9.46568e+08
        125.5   9.46565e+08
          126   9.46562e+08
        126.5   9.46559e+08
          127   9.46556e+08
        127.5   9.46553e+08
          128    9.4655e+08
        128.5   9.46547e+08
          129   9.46544e+08
        129.5   9.46541e+08
          130   9.46538e+08
        130.5   9.46534e+08
          131   9.46531e+08
        131.5   9.46528e+08
          132   9.46525e+08
        132.5   9.46521e+08
          133   9.46518e+08
        133.5   9.46514e+08
          134   9.46511e+08
        134.5   9.46507e+08
          135   9.46504e+08
        135.5     9.465e+08
          136   9.46497e+08
        136.5   9.46493e+08
          137   9.46489e+08
        137.5   9.46486e+08
          138   9.46482e+08
        138.5   9.46478e+08
          139   9.46474e+08
        139.5    9.4647e+08
          140   9.46466e+08
        140.5   9.46462e+08
          141   9.46458e+08
        141.5   9.46454e+08
          142    9.4645e+08
        142.5   9.46446e+08
          143   9.46441e+08
        143.5   9.46437e+08
          144   9.46433e+08
        144.5   9.46429e+08
          145   9.46424e+08
        145.5    9.4642e+08
          146   9.46415e+08
        146.5   9.46411e+08
          147   9.46406e+08
        147.5   9.46401e+08
          148   9.46397e+08
        148.5   9.46392e+08
          149   9.46387e+08
        149.5   9.46382e+08
          150   9.46378e+08
        150.5   9.46373e+08
          151   9.46368e+08
        151.5   9.46363e+08
          152   9.46358e+08
        152.5   9.46352e+08
          153   9.46347e+08
        153.5   9.46342e+08
          154   9.46337e+08
        154.5   9.46332e+08
          155   9.46326e+08
        155.5   9.46321e+08
          156   9.46315e+08
        156.5    9.4631e+08
          157   9.46304e+08
        157.5   9.46298e+08
          158   9.46293e+08
        158.5   9.46287e+08
          159   9.46281e+08
        159.5   9.46275e+08
          160   9.46269e+08
        160.5   9.46263e+08
          161   9.46257e+08
        161.5   9.46251e+08
          162   9.46245e+08
        162.5   9.46239e+08
          163   9.46233e+08
        163.5   9.46226e+08
          164    9.4622e+08
        164.5   9.46214e+08
          165   9.46207e+08
        165.5   9.46201e+08
          166   9.46194e+08
        166.5   9.46187e+08
          167   9.46181e+08
        167.5   9.46174e+08
          168   9.46167e+08
        168.5    9.4616e+08
          169   9.46153e+08
        169.5   9.46146e+08
          170   9.46139e+08
        170.5   9.46132e+08
          171   9.46125e+08
        171.5   9.46117e+08
          172    9.4611e+08
        172.5   9.46103e+08
          173   9.46095e+08
        173.5   9.46088e+08
          174    9.4608e+08
        174.5   9.46072e+08
          175   9.46064e+08
        175.5   9.46057e+08
          176   9.46049e+08
        176.5   9.46041e+08
          177   9.46033e+08
        177.5   9.46025e+08
          178   9.46017e+08
        178.5   9.46008e+08
          179      9.46e+08
        179.5   9.45992e+08
          180   9.45983e+08
        180.5   9.45975e+08
          181   9.45966e+08
        181.5   9.45958e+08
          182   9.45949e+08
        182.5    9.4594e+08
          183   9.45931e+08
        183.5   9.45922e+08
          184   9.45913e+08
        184.5   9.45904e+08
          185   9.45895e+08
        185.5   9.45886e+08
          186   9.45877e+08
        186.5   9.45867e+08
          187   9.45858e+08
        187.5   9.45848e+08
          188   9.45839e+08
        188.5   9.45829e+08
          189   9.45819e+08
        189.5   9.45809e+08
          190   9.45799e+08
        190.5   9.45789e+08
          191   9.45779e+08
        191.5   9.45769e+08
          192   9.45759e+08
        192.5   9.45749e+08
          193   9.45738e+08
        193.5   9.45728e+08
          194   9.45717e+08
        194.5   9.45707e+08
          195   9.45696e+08
        195.5   9.45685e+08
          196   9.45674e+08
        196.5   9.45663e+08
          197   9.45652e+08
        197.5   9.45641e+08
          198    9.4563e+08
        198.5   9.45619e+08
          199   9.45607e+08
        199.5   9.45596e+08
          200   9.45584e+08
        200.5   9.45573e+08
          201   9.45561e+08
        201.5   9.45549e+08
          202   9.45537e+08
        202.5   9.45525e+08
          203   9.45513e+08
        203.5   9.45501e+08
          204   9.45489e+08
        204.5   9.45476e+08
          205   9.45464e+08
        205.5   9.45451e+08
          206   9.45439e+08
        206.5   9.45426e+08
          207   9.45413e+08
        207.5     9.454e+08
          208   9.45387e+08
        208.5   9.45374e+08
          209   9.45361e+08
        209.5   9.45348e+08
          210   9.45334e+08
        210.5   9.45321e+08
          211   9.45307e+08
        211.5   9.45293e+08
          212    9.4528e+08
        212.5   9.45266e+08
          213   9.45252e+08
        213.5   9.45238e+08
          214   9.45224e+08
        214.5   9.45209e+08
          215   9.45195e+08
        215.5   9.45181e+08
          216   9.45166e+08
        216.5   9.45151e+08
          217   9.45137e+08
        217.5   9.45122e+08
          218   9.45107e+08
        218.5   9.45092e+08
          219   9.45076e+08
        219.5   9.45061e+08
          220   9.45046e+08
        220.5    9.4503e+08
          221   9.45015e+08
        221.5   9.44999e+08
          222   9.44983e+08
        222.5   9.44967e+08
          223   9.44951e+08
        223.5   9.44935e+08
          224   9.44919e+08
        224.5   9.44903e+08
          225   9.44886e+08
        225.5    9.4487e+08
          226   9.44853e+08
        226.5   9.44836e+08
          227   9.44819e+08
        227.5   9.44802e+08
          228   9.44785e+08
        228.5   9.44768e+08
          229    9.4475e+08
        229.5   9.44733e+08
          230   9.44715e+08
        230.5   9.44698e+08
          231    9.4468e+08
        231.5   9.44662e+08
          232   9.44644e+08
        232.5   9.44626e+08
          233   9.44608e+08
        233.5   9.44589e+08
          234   9.44571e+08
        234.5   9.44552e+08
          235   9.44533e+08
        235.5   9.44514e+08
          236   9.44495e+08
        236.5   9.44476e+08
          237   9.44457e+08
        237.5   9.44438e+08
          238   9.44418e+08
        238.5   9.44399e+08
          239   9.44379e+08
        239.5   9.44359e+08
          240   9.44339e+08
        240.5   9.44319e+08
          241   9.44299e+08
        241.5   9.44279e+08
          242   9.44258e+08
        242.5   9.44237e+08
          243   9.44217e+08
        243.5   9.44196e+08
          244   9.44175e+08
        244.5   9.44154e+08
          245   9.44133e+08
        245.5   9.44111e+08
          246    9.4409e+08
        246.5   9.44068e+08
          247   9.44046e+08
        247.5   9.44024e+08
          248   9.44002e+08
        248.5    9.4398e+08
          249   9.43958e+08
        249.5   9.43936e+08
          250   9.43913e+08
        250.5    9.4389e+08
          251   9.43868e+08
        251.5   9.43845e+08
          252   9.43821e+08
        252.5   9.43798e+08
          253   9.43775e+08
        253.5   9.43751e+08
          254   9.43728e+08
        254.5   9.43704e+08
          255    9.4368e+08
        255.5   9.43656e+08
          256   9.43632e+08
        256.5   9.43607e+08
          257   9.43583e+08
        257.5   9.43558e+08
          258   9.43533e+08
        258.5   9.43509e+08
          259   9.43483e+08
        259.5   9.43458e+08
          260   9.43433e+08
        260.5   9.43407e+08
          261   9.43382e+08
        261.5   9.43356e+08
          262    9.4333e+08
        262.5   9.43304e+08
          263   9.43278e+08
        263.5   9.43251e+08
          264   9.43225e+08
        264.5   9.43198e+08
          265   9.43171e+08
        265.5   9.43144e+08
          266   9.43117e+08
        266.5    9.4309e+08
          267   9.43062e+08
        267.5   9.43035e+08
          268   9.43007e+08
        268.5   9.42979e+08
          269   9.42951e+08
        269.5   9.42923e+08
          270   9.42894e+08
        270.5   9.42866e+08
          271   9.42837e+08
        271.5   9.42808e+08
          272   9.42779e+08
        272.5    9.4275e+08
          273   9.42721e+08
        273.5   9.42691e+08
          274   9.42662e+08
        274.5   9.42632e+08
          275   9.42602e+08
        275.5   9.42572e+08
          276   9.42541e+08
        276.5   9.42511e+08
          277    9.4248e+08
        277.5   9.42449e+08
          278   9.42418e+08
        278.5   9.42387e+08
          279   9.42356e+08
        279.5   9.42325e+08
          280   9.42293e+08
        280.5   9.42261e+08
          281   9.42229e+08
        281.5   9.42197e+08
          282   9.42165e+08
        282.5   9.42132e+08
          283     9.421e+08
        283.5   9.42067e+08
          284   9.42034e+08
        284.5   9.42001e+08
          285   9.41967e+08
        285.5   9.41934e+08
          286     9.419e+08
        286.5   9.41866e+08
          287   9.41832e+08
        287.5   9.41798e+08
          288   9.41764e+08
        288.5   9.41729e+08
          289   9.41694e+08
        289.5   9.41659e+08
          290   9.41624e+08
        290.5   9.41589e+08
          291   9.41553e+08
        291.5   9.41518e+08
          292   9.41482e+08
        292.5   9.41446e+08
          293    9.4141e+08
        293.5   9.41373e+08
          294   9.41337e+08
        294.5     9.413e+08
          295   9.41263e+08
        295.5   9.41226e+08
          296   9.41189e+08
        296.5   9.41151e+08
          297   9.41113e+08
        297.5   9.41076e+08
          298   9.41037e+08
        298.5   9.40999e+08
          299   9.40961e+08
        299.5   9.40922e+08
          300   9.40883e+08
        300.5   9.40844e+08
          301   9.40805e+08
        301.5   9.40766e+08
          302   9.40726e+08
        302.5   9.40686e+08
          303   9.40646e+08
        303.5   9.40606e+08
          304   9.40566e+08
        304.5   9.40525e+08
          305   9.40484e+08
        305.5   9.40443e+08
          306   9.40402e+08
        306.5   9.40361e+08
          307   9.40319e+08
        307.5   9.40277e+08
          308   9.40235e+08
        308.5   9.40193e+08
          309   9.40151e+08
        309.5   9.40108e+08
          310   9.40065e+08
        310.5   9.40022e+08
          311   9.39979e+08
        311.5   9.39936e+08
          312   9.39892e+08
        312.5   9.39848e+08
          313   9.39804e+08
        313.5    9.3976e+08
          314   9.39715e+08
        314.5   9.39671e+08
          315   9.39626e+08
        315.5   9.39581e+08
          316   9.39535e+08
        316.5    9.3949e+08
          317   9.39444e+08
        317.5   9.39398e+08
          318   9.39352e+08
        318.5   9.39306e+08
          319   9.39259e+08
        319.5   9.39212e+08
          320   9.39165e+08
        320.5   9.39118e+08
          321   9.39071e+08
        321.5   9.39023e+08
          322   9.38975e+08
        322.5   9.38927e+08
          323   9.38879e+08
        323.5    9.3883e+08
          324   9.38781e+08
        324.5   9.38732e+08
          325   9.38683e+08
        325.5   9.38634e+08
          326   9.38584e+08
        326.5   9.38534e+08
          327   9.38484e+08
        327.5   9.38433e+08
          328   9.38383e+08
        328.5   9.38332e+08
          329   9.38281e+08
        329.5    9.3823e+08
          330   9.38178e+08
        330.5   9.38127e+08
          331   9.38075e+08
        331.5   9.38022e+08
          332    9.3797e+08
        332.5   9.37917e+08
          333   9.37864e+08
        333.5   9.37811e+08
          334   9.37758e+08
        334.5   9.37704e+08
          335    9.3765e+08
        335.5   9.37596e+08
          336   9.37542e+08
        336.5   9.37487e+08
          337   9.37433e+08
        337.5   9.37378e+08
          338   9.37322e+08
        338.5   9.37267e+08
          339   9.37211e+08
        339.5   9.37155e+08
          340   9.37099e+08
        340.5   9.37042e+08
          341   9.36986e+08
        341.5   9.36929e+08
          342   9.36871e+08
        342.5   9.36814e+08
          343   9.36756e+08
        343.5   9.36698e+08
          344    9.3664e+08
        344.5   9.36582e+08
          345   9.36523e+08
        345.5   9.36464e+08
          346   9.36405e+08
        346.5   9.36345e+08
          347   9.36286e+08
        347.5   9.36226e+08
          348   9.36165e+08
        348.5   9.36105e+08
          349   9.36044e+08
        349.5   9.35983e+08
          350   9.35922e+08
        350.5    9.3586e+08
          351   9.35799e+08
        351.5   9.35737e+08
          352   9.35674e+08
        352.5   9.35612e+08
          353   9.35549e+08
        353.5   9.35486e+08
          354   9.35423e+08
        354.5   9.35359e+08
          355   9.35295e+08
        355.5   9.35231e+08
          356   9.35167e+08
        356.5   9.35102e+08
          357   9.35037e+08
        357.5   9.34972e+08
          358   9.34906e+08
        358.5   9.34841e+08
          359   9.34775e+08
        359.5   9.34708e+08
          360   9.34642e+08
        360.5   9.34575e+08
          361   9.34508e+08
        361.5   9.34441e+08
          362   9.34373e+08
        362.5   9.34305e+08
          363   9.34237e+08
        363.5   9.34168e+08
          364     9.341e+08
        364.5   9.34031e+08
          365   9.33961e+08
        365.5   9.33892e+08
          366   9.33822e+08
        366.5   9.33752e+08
          367   9.33682e+08
        367.5   9.33611e+08
          368    9.3354e+08
        368.5   9.33469e+08
          369   9.33397e+08
        369.5   9.33325e+08
          370   9.33253e+08
        370.5   9.33181e+08
          371   9.33108e+08
        371.5   9.33035e+08
          372   9.32962e+08
        372.5   9.32889e+08
          373   9.32815e+08
        373.5   9.32741e+08
          374   9.32666e+08
        374.5   9.32592e+08
          375   9.32517e+08
        375.5   9.32441e+08
          376   9.32366e+08
        376.5    9.3229e+08
          377   9.32214e+08
        377.5   9.32137e+08
          378   9.32061e+08
        378.5   9.31984e+08
          379   9.31906e+08
        379.5   9.31829e+08
          380   9.31751e+08
        380.5   9.31672e+08
          381   9.31594e+08
        381.5   9.31515e+08
          382   9.31436e+08
        382.5   9.31357e+08
          383   9.31277e+08
        383.5   9.31197e+08
          384   9.31116e+08
        384.5   9.31036e+08
          385   9.30955e+08
        385.5   9.30874e+08
          386   9.30792e+08
        386.5    9.3071e+08
          387   9.30628e+08
        387.5   9.30546e+08
          388   9.30463e+08
        388.5    9.3038e+08
          389   9.30296e+08
        389.5   9.30212e+08
          390   9.30128e+08
        390.5   9.30044e+08
          391   9.29959e+08
        391.5   9.29874e+08
          392   9.29789e+08
        392.5   9.29704e+08
          393   9.29618e+08
        393.5   9.29531e+08
          394   9.29445e+08
        394.5   9.29358e+08
          395   9.29271e+08
        395.5   9.29183e+08
          396   9.29095e+08
        396.5   9.29007e+08
          397   9.28919e+08
        397.5    9.2883e+08
          398   9.28741e+08
        398.5   9.28651e+08
          399   9.28561e+08
        399.5   9.28471e+08
          400   9.28381e+08
        400.5    9.2829e+08
          401   9.28199e+08
        401.5   9.28108e+08
          402   9.28016e+08
        402.5   9.27924e+08
          403   9.27831e+08
        403.5   9.27739e+08
          404   9.27645e+08
        404.5   9.27552e+08
          405   9.27458e+08
        405.5   9.27364e+08
          406    9.2727e+08
        406.5   9.27175e+08
          407    9.2708e+08
        407.5   9.26985e+08
          408   9.26889e+08
        408.5   9.26793e+08
          409   9.26696e+08
        409.5   9.26599e+08
          410   9.26502e+08
        410.5   9.26405e+08
          411   9.26307e+08
        411.5   9.26209e+08
          412    9.2611e+08
        412.5   9.26012e+08
          413   9.25912e+08
        413.5   9.25813e+08
          414   9.25713e+08
        414.5   9.25613e+08
          415   9.25512e+08
        415.5   9.25411e+08
          416    9.2531e+08
        416.5   9.25208e+08
          417   9.25106e+08
        417.5   9.25004e+08
          418   9.24901e+08
        418.5   9.24798e+08
          419   9.24695e+08
        419.5   9.24591e+08
          420   9.24487e+08
        420.5   9.24383e+08
          421   9.24278e+08
        421.5   9.24173e+08
          422   9.24067e+08
        422.5   9.23961e+08
          423   9.23855e+08
        423.5   9.23748e+08
          424   9.23641e+08
        424.5   9.23534e+08
          425   9.23426e+08
        425.5   9.23318e+08
          426    9.2321e+08
        426.5   9.23101e+08
          427   9.22992e+08
        427.5   9.22883e+08
          428   9.22773e+08
        428.5   9.22662e+08
          429   9.22552e+08
        429.5   9.22441e+08
          430   9.22329e+08
        430.5   9.22218e+08
          431   9.22106e+08
        431.5   9.21993e+08
          432    9.2188e+08
        432.5   9.21767e+08
          433   9.21654e+08
        433.5    9.2154e+08
          434   9.21425e+08
        434.5   9.21311e+08
          435   9.21195e+08
        435.5    9.2108e+08
          436   9.20964e+08
        436.5   9.20848e+08
          437   9.20731e+08
        437.5   9.20614e+08
          438   9.20497e+08
        438.5   9.20379e+08
          439   9.20261e+08
        439.5   9.20143e+08
          440   9.20024e+08
        440.5   9.19904e+08
          441   9.19785e+08
        441.5   9.19665e+08
          442   9.19544e+08
        442.5   9.19423e+08
          443   9.19302e+08
        443.5   9.19181e+08
          444   9.19059e+08
        444.5   9.18936e+08
          445   9.18814e+08
        445.5    9.1869e+08
          446   9.18567e+08
        446.5   9.18443e+08
          447   9.18319e+08
        447.5   9.18194e+08
          448   9.18069e+08
        448.5   9.17943e+08
          449   9.17817e+08
        449.5   9.17691e+08
          450   9.17564e+08
        450.5   9.17437e+08
          451    9.1731e+08
        451.5   9.17182e+08
          452   9.17053e+08
        452.5   9.16925e+08
          453   9.16796e+08
        453.5   9.16666e+08
          454   9.16536e+08
        454.5   9.16406e+08
          455   9.16275e+08
        455.5   9.16144e+08
          456   9.16012e+08
        456.5    9.1588e+08
          457   9.15748e+08
        457.5   9.15615e+08
          458   9.15482e+08
        458.5   9.15349e+08
          459   9.15215e+08
        459.5    9.1508e+08
          460   9.14945e+08
        460.5    9.1481e+08
          461   9.14674e+08
        461.5   9.14538e+08
          462   9.14402e+08
        462.5   9.14265e+08
          463   9.14128e+08
        463.5    9.1399e+08
          464   9.13852e+08
        464.5   9.13713e+08
          465   9.13574e+08
        465.5   9.13435e+08
          466   9.13295e+08
        466.5   9.13155e+08
          467   9.13014e+08
        467.5   9.12873e+08
          468   9.12732e+08
        468.5    9.1259e+08
          469   9.12447e+08
        469.5   9.12305e+08
          470   9.12161e+08
        470.5   9.12018e+08
          471   9.11874e+08
        471.5   9.11729e+08
          472   9.11584e+08
        472.5   9.11439e+08
          473   9.11293e+08
        473.5   9.11147e+08
          474   9.11001e+08
        474.5   9.10853e+08
          475   9.10706e+08
        475.5   9.10558e+08
          476    9.1041e+08
        476.5   9.10261e+08
          477   9.10112e+08
        477.5   9.09962e+08
          478   9.09812e+08
        478.5   9.09661e+08
          479    9.0951e+08
        479.5   9.09359e+08
          480   9.09207e+08
        480.5   9.09055e+08
          481   9.08902e+08
        481.5   9.08749e+08
          482   9.08595e+08
        482.5   9.08441e+08
          483   9.08287e+08
        483.5   9.08132e+08
          484   9.07977e+08
        484.5   9.07821e+08
          485   9.07664e+08
        485.5   9.07508e+08
          486   9.07351e+08
        486.5   9.07193e+08
          487   9.07035e+08
        487.5   9.06876e+08
          488   9.06717e+08
        488.5   9.06558e+08
          489   9.06398e+08
        489.5   9.06238e+08
          490   9.06077e+08
        490.5   9.05916e+08
          491   9.05754e+08
        491.5   9.05592e+08
          492    9.0543e+08
        492.5   9.05267e+08
          493   9.05103e+08
        493.5   9.04939e+08
          494   9.04775e+08
        494.5    9.0461e+08
          495   9.04445e+08
        495.5   9.04279e+08
          496   9.04113e+08
        496.5   9.03946e+08
          497   9.03779e+08
        497.5   9.03611e+08
          498   9.03443e+08
        498.5   9.03274e+08
          499   9.03105e+08
        499.5   9.02936e+08
          500   9.02766e+08
        500.5   9.02596e+08
          501   9.02425e+08
        501.5   9.02253e+08
          502   9.02082e+08
        502.5   9.01909e+08
          503   9.01737e+08
        503.5   9.01563e+08
          504    9.0139e+08
        504.5   9.01216e+08
          505   9.01041e+08
        505.5   9.00866e+08
          506    9.0069e+08
        506.5   9.00514e+08
          507   9.00338e+08
        507.5   9.00161e+08
          508   8.99983e+08
        508.5   8.99805e+08
          509   8.99627e+08
        509.5   8.99448e+08
          510   8.99269e+08
        510.5   8.99089e+08
          511   8.98909e+08
        511.5   8.98728e+08
          512   8.98547e+08
        512.5   8.98365e+08
          513   8.98183e+08
        513.5      8.98e+08
          514   8.97817e+08
        514.5   8.97633e+08
          515   8.97449e+08
        515.5   8.97264e+08
          516   8.97079e+08
        516.5   8.96893e+08
          517   8.96707e+08
        517.5   8.96521e+08
          518   8.96334e+08
        518.5   8.96146e+08
          519   8.95958e+08
        519.5   8.95769e+08
          520    8.9558e+08
        520.5   8.95391e+08
          521   8.95201e+08
        521.5    8.9501e+08
          522   8.94819e+08
        522.5   8.94628e+08
          523   8.94436e+08
        523.5   8.94243e+08
          524    8.9405e+08
        524.5   8.93857e+08
          525   8.93663e+08
        525.5   8.93469e+08
          526   8.93274e+08
        526.5   8.93078e+08
          527   8.92882e+08
        527.5   8.92686e+08
          528   8.92489e+08
        528.5   8.92291e+08
          529   8.92094e+08
        529.5   8.91895e+08
          530   8.91696e+08
        530.5   8.91497e+08
          531   8.91297e+08
        531.5   8.91096e+08
          532   8.90895e+08
        532.5   8.90694e+08
          533   8.90492e+08
        533.5    8.9029e+08
          534   8.90087e+08