0.000000e+00 
1.250000e+02 
2.500000e+02 
3.750000e+02 
5.000000e+02 
5.889911e+02 
6.779822e+02 
7.669733e+02 
8.559644e+02 
9.449555e+02 
1.033947e+03 
1.122938e+03 
1.211929e+03 
1.295350e+03 
1.378771e+03 
1.462193e+03 
1.545614e+03 
1.615103e+03 
1.684592e+03 
1.754081e+03 
1.823571e+03 
1.912439e+03 
2.001308e+03 
2.090176e+03 
2.179045e+03 
2.286340e+03 
2.393635e+03 
2.500930e+03 
2.608226e+03 
2.721194e+03 
2.834162e+03 
2.947130e+03 
3.060098e+03 
3.185098e+03 
3.310098e+03 
3.435098e+03 
3.560098e+03 
3.685098e+03 
3.810098e+03 
3.935098e+03 
4.060098e+03 
4.185098e+03 
4.310098e+03 
4.435098e+03 
4.560098e+03 
4.670073e+03 
4.780049e+03 
4.890024e+03 
5.000000e+03 
