# Probe 0 (0.05 0.05 0.005)
#       Probe             0
#        Time
         5050     0.0389617
         5100     0.0389828
         5150     0.0390031
         5200     0.0390228
         5250     0.0390419
         5300     0.0390603
         5350     0.0390782
         5400     0.0390955
         5450     0.0391122
         5500     0.0391285
         5550     0.0391442
         5600     0.0391595
         5650     0.0391743
         5700     0.0391887
         5750     0.0392027
         5800     0.0392162
         5850     0.0392294
         5900     0.0392422
         5950     0.0392547
         6000     0.0392668
         6050     0.0392786
         6100     0.0392901
         6150     0.0393012
         6200     0.0393121
         6250     0.0393227
         6300      0.039333
         6350      0.039343
         6400     0.0393528
         6450     0.0393623
         6500     0.0393716
         6550     0.0393807
         6600     0.0393895
         6650     0.0393982
         6700     0.0394066
         6750     0.0394148
         6800     0.0394229
         6850     0.0394307
         6900     0.0394384
         6950     0.0394459
         7000     0.0394532
         7050     0.0394603
         7100     0.0394673
         7150     0.0394741
         7200     0.0394808
         7250     0.0394874
         7300     0.0394938
         7350        0.0395
         7400     0.0395062
         7450     0.0395122
         7500      0.039518
