# Probe 0 (0.05 0.05 0.005)
#       Probe             0
#        Time
         5050     0.0010383
         5100    0.00101723
         5150   0.000996874
         5200   0.000977183
         5250   0.000958132
         5300   0.000939692
         5350   0.000921838
         5400   0.000904544
         5450   0.000887786
         5500   0.000871543
         5550   0.000855792
         5600   0.000840514
         5650    0.00082569
         5700     0.0008113
         5750   0.000797329
         5800   0.000783759
         5850   0.000770574
         5900   0.000757761
         5950   0.000745304
         6000    0.00073319
         6050   0.000721407
         6100   0.000709942
         6150   0.000698783
         6200    0.00068792
         6250   0.000677341
         6300   0.000667036
         6350   0.000656996
         6400   0.000647211
         6450   0.000637673
         6500   0.000628373
         6550   0.000619303
         6600   0.000610455
         6650   0.000601821
         6700   0.000593395
         6750    0.00058517
         6800   0.000577138
         6850   0.000569295
         6900   0.000561633
         6950   0.000554147
         7000   0.000546832
         7050   0.000539682
         7100   0.000532692
         7150   0.000525856
         7200   0.000519171
         7250   0.000512632
         7300   0.000506234
         7350   0.000499974
         7400   0.000493846
         7450   0.000487847
         7500   0.000481974
