# Probe 0 (0.05 0.05 0.005)
#       Probe             0
#        Time
         5050     0.0010383
         5100    0.00101724
         5150   0.000996883
         5200   0.000977192
         5250   0.000958141
         5300   0.000939701
         5350   0.000921847
         5400   0.000904553
         5450   0.000887796
         5500   0.000871552
         5550   0.000855802
         5600   0.000840524
         5650   0.000825699
         5700    0.00081131
         5750   0.000797338
         5800   0.000783768
         5850   0.000770584
         5900    0.00075777
         5950   0.000745314
         6000     0.0007332
         6050   0.000721417
         6100   0.000709952
         6150   0.000698793
         6200   0.000687929
         6250    0.00067735
         6300   0.000667045
         6350   0.000657005
         6400   0.000647221
         6450   0.000637683
         6500   0.000628383
         6550   0.000619312
         6600   0.000610464
         6650   0.000601831
         6700   0.000593405
         6750   0.000585179
         6800   0.000577148
         6850   0.000569304
         6900   0.000561643
         6950   0.000554157
         7000   0.000546842
         7050   0.000539692
         7100   0.000532701
         7150   0.000525866
         7200   0.000519181
         7250   0.000512642
         7300   0.000506244
         7350   0.000499983
         7400   0.000493855
         7450   0.000487857
         7500   0.000481984
