# Probe 0 (0.05 0.05 0.005)
#       Probe             0
#        Time
         5050    0.00103828
         5100    0.00101722
         5150   0.000996862
         5200   0.000977171
         5250    0.00095812
         5300    0.00093968
         5350   0.000921826
         5400   0.000904532
         5450   0.000887774
         5500   0.000871531
         5550    0.00085578
         5600   0.000840502
         5650   0.000825678
         5700   0.000811288
         5750   0.000797317
         5800   0.000783747
         5850   0.000770562
         5900   0.000757749
         5950   0.000745292
         6000   0.000733179
         6050   0.000721395
         6100    0.00070993
         6150   0.000698771
         6200   0.000687908
         6250   0.000677329
         6300   0.000667024
         6350   0.000656984
         6400   0.000647199
         6450   0.000637661
         6500   0.000628361
         6550   0.000619291
         6600   0.000610443
         6650   0.000601809
         6700   0.000593383
         6750   0.000585158
         6800   0.000577126
         6850   0.000569283
         6900   0.000561621
         6950   0.000554136
         7000    0.00054682
         7050    0.00053967
         7100    0.00053268
         7150   0.000525845
         7200    0.00051916
         7250    0.00051262
         7300   0.000506222
         7350   0.000499962
         7400   0.000493834
         7450   0.000487835
         7500   0.000481962
