# Probe 0 (0.05 0.05 0.005)
#       Probe             0
#        Time
         5050   2.59655e+09
         5100    2.5824e+09
         5150   2.56825e+09
         5200   2.55409e+09
         5250   2.53994e+09
         5300   2.52579e+09
         5350   2.51164e+09
         5400   2.49749e+09
         5450   2.48335e+09
         5500    2.4692e+09
         5550   2.45506e+09
         5600   2.44092e+09
         5650   2.42679e+09
         5700   2.41266e+09
         5750   2.39854e+09
         5800   2.38442e+09
         5850   2.37031e+09
         5900    2.3562e+09
         5950   2.34209e+09
         6000     2.328e+09
         6050   2.31391e+09
         6100   2.29983e+09
         6150   2.28576e+09
         6200   2.27169e+09
         6250   2.25763e+09
         6300   2.24359e+09
         6350   2.22955e+09
         6400   2.21552e+09
         6450    2.2015e+09
         6500    2.1875e+09
         6550    2.1735e+09
         6600   2.15951e+09
         6650   2.14554e+09
         6700   2.13158e+09
         6750   2.11763e+09
         6800    2.1037e+09
         6850   2.08978e+09
         6900   2.07587e+09
         6950   2.06197e+09
         7000    2.0481e+09
         7050   2.03423e+09
         7100   2.02038e+09
         7150   2.00655e+09
         7200   1.99274e+09
         7250   1.97894e+09
         7300   1.96516e+09
         7350    1.9514e+09
         7400   1.93765e+09
         7450   1.92392e+09
         7500   1.91022e+09
