# Probe 0 (0.05 0.05 0.005)
#       Probe             0
#        Time
         5050       24.5937
         5100       24.0732
         5150         23.57
         5200       23.0834
         5250       22.6126
         5300        22.157
         5350       21.7159
         5400       21.2886
         5450       20.8747
         5500       20.4735
         5550       20.0844
         5600       19.7071
         5650        19.341
         5700       18.9857
         5750       18.6407
         5800       18.3056
         5850       17.9801
         5900       17.6638
         5950       17.3563
         6000       17.0572
         6050       16.7664
         6100       16.4834
         6150        16.208
         6200       15.9399
         6250       15.6788
         6300       15.4245
         6350       15.1768
         6400       14.9353
         6450          14.7
         6500       14.4705
         6550       14.2468
         6600       14.0285
         6650       13.8155
         6700       13.6077
         6750       13.4048
         6800       13.2067
         6850       13.0132
         6900       12.8243
         6950       12.6397
         7000       12.4593
         7050       12.2829
         7100       12.1106
         7150        11.942
         7200       11.7772
         7250       11.6159
         7300       11.4582
         7350       11.3039
         7400       11.1528
         7450       11.0049
         7500       10.8601
