# Probe 0 (0.05 0.05 0.005)
#       Probe             0
#        Time
         5050    0.00100186
         5100   0.000980653
         5150   0.000960155
         5200   0.000940332
         5250   0.000921155
         5300   0.000902595
         5350   0.000884626
         5400   0.000867222
         5450   0.000850359
         5500   0.000834015
         5550   0.000818167
         5600   0.000802796
         5650   0.000787882
         5700   0.000773407
         5750   0.000759354
         5800   0.000745704
         5850   0.000732444
         5900   0.000719558
         5950    0.00070703
         6000   0.000694849
         6050   0.000683001
         6100   0.000671473
         6150   0.000660254
         6200   0.000649332
         6250   0.000638697
         6300   0.000628338
         6350   0.000618246
         6400   0.000608411
         6450   0.000598824
         6500   0.000589477
         6550   0.000580362
         6600    0.00057147
         6650   0.000562794
         6700   0.000554327
         6750   0.000546062
         6800   0.000537992
         6850   0.000530112
         6900   0.000522414
         6950   0.000514894
         7000   0.000507545
         7050   0.000500362
         7100    0.00049334
         7150   0.000486474
         7200    0.00047976
         7250   0.000473192
         7300   0.000466766
         7350   0.000460478
         7400   0.000454324
         7450     0.0004483
         7500   0.000442402
