# Probe 0 (0.05 0.05 0.005)
#       Probe             0
#        Time
         5050       25.5937
         5100       25.0732
         5150         24.57
         5200       24.0834
         5250       23.6126
         5300        23.157
         5350       22.7159
         5400       22.2886
         5450       21.8747
         5500       21.4735
         5550       21.0844
         5600       20.7071
         5650        20.341
         5700       19.9857
         5750       19.6407
         5800       19.3056
         5850       18.9801
         5900       18.6638
         5950       18.3563
         6000       18.0572
         6050       17.7664
         6100       17.4834
         6150        17.208
         6200       16.9399
         6250       16.6788
         6300       16.4245
         6350       16.1768
         6400       15.9353
         6450          15.7
         6500       15.4705
         6550       15.2468
         6600       15.0285
         6650       14.8155
         6700       14.6077
         6750       14.4048
         6800       14.2067
         6850       14.0132
         6900       13.8243
         6950       13.6397
         7000       13.4593
         7050       13.2829
         7100       13.1106
         7150        12.942
         7200       12.7772
         7250       12.6159
         7300       12.4582
         7350       12.3039
         7400       12.1528
         7450       12.0049
         7500       11.8601
