# Probe 0 (0.05 0.05 0.005)
#       Probe             0
#        Time
         5050        4.2244
         5100       4.19763
         5150       4.17121
         5200       4.14515
         5250       4.11943
         5300       4.09405
         5350       4.06899
         5400       4.04425
         5450       4.01983
         5500       3.99571
         5550       3.97189
         5600       3.94836
         5650       3.92512
         5700       3.90216
         5750       3.87947
         5800       3.85705
         5850        3.8349
         5900         3.813
         5950       3.79135
         6000       3.76995
         6050        3.7488
         6100       3.72788
         6150       3.70719
         6200       3.68673
         6250       3.66649
         6300       3.64648
         6350       3.62667
         6400       3.60708
         6450        3.5877
         6500       3.56852
         6550       3.54953
         6600       3.53075
         6650       3.51215
         6700       3.49374
         6750       3.47552
         6800       3.45748
         6850       3.43962
         6900       3.42193
         6950       3.40441
         7000       3.38706
         7050       3.36988
         7100       3.35286
         7150       3.33601
         7200       3.31931
         7250       3.30276
         7300       3.28637
         7350       3.27012
         7400       3.25403
         7450       3.23808
         7500       3.22227
