# Probe 0 (0.05 0.05 0.005)
#       Probe             0
#        Time
         5050       16764.8
         5100       15762.6
         5150       14832.5
         5200       13968.5
         5250       13165.3
         5300       12417.9
         5350       11721.7
         5400       11072.6
         5450       10467.1
         5500       9901.63
         5550       9373.17
         5600       8878.89
         5650       8416.23
         5700       7982.82
         5750       7576.52
         5800       7195.34
         5850       6837.48
         5900       6501.26
         5950       6185.17
         6000        5887.8
         6050       5607.85
         6100       5344.12
         6150       5095.53
         6200       4861.05
         6250       4639.74
         6300       4430.75
         6350       4233.26
         6400       4046.54
         6450       3869.89
         6500       3702.69
         6550       3544.33
         6600       3394.27
         6650          3252
         6700       3117.04
         6750       2988.96
         6800       2867.33
         6850       2751.79
         6900       2641.96
         6950       2537.53
         7000       2438.17
         7050       2343.59
         7100       2253.53
         7150       2167.73
         7200       2085.96
         7250       2007.98
         7300        1933.6
         7350       1862.62
         7400       1794.85
         7450       1730.12
         7500       1668.27
