# Probe 0 (0.05 0.05 0.005)
#       Probe             0
#        Time
           24    0.00602647
           40    0.00602647
           50    0.00602647
           60    0.00602647
           70    0.00602647
           80    0.00602647
           90    0.00602647
          100    0.00602647
          110    0.00602647
          120    0.00602647
          130    0.00602647
          140    0.00602647
          150    0.00602647
          160    0.00602647
          170    0.00602647
          180    0.00602647
          190    0.00602647
          200    0.00602647
          210    0.00602647
          220    0.00602647
          230    0.00602647
          240    0.00602647
          250    0.00602647
          260    0.00602647
          270    0.00602647
          280    0.00602647
          290    0.00602647
          300    0.00602647
          310    0.00602647
          320    0.00602647
          330    0.00602647
          340    0.00602647
          350    0.00602647
          360    0.00602647
          370    0.00602647
          380    0.00602647
          390    0.00602647
          400    0.00602647
          410    0.00602647
          420    0.00602647
          430    0.00602647
          440    0.00602647
          450    0.00602647
          460    0.00602647
          470    0.00602647
          480    0.00602647
          490    0.00602647
          500    0.00602647
          510    0.00602647
          520    0.00602647
          530    0.00602647
          540    0.00602647
          550    0.00602647
          560    0.00602647
          570    0.00602647
          580    0.00602647
          590    0.00602647
          600    0.00602647
          610    0.00602647
          620    0.00602647
          630    0.00602647
          640    0.00602647
          650    0.00602647
          660    0.00602647
          670    0.00602647
          680    0.00602647
          690    0.00602647
          700    0.00602647
          710    0.00602647
          720    0.00602647
          730    0.00602647
          740    0.00602647
          750    0.00602647
          760    0.00602647
          770    0.00602647
          780    0.00602647
          790    0.00602647
          800    0.00602647
          810    0.00602647
          820    0.00602647
          830    0.00602647
          840    0.00602647
          850    0.00602647
          860    0.00602647
          870    0.00602647
          880    0.00602647
          890    0.00602647
          900    0.00602647
          910    0.00602647
          920    0.00602647
          930    0.00602647
          940    0.00602647
          950    0.00602647
          960    0.00602647
          970    0.00602647
          980    0.00602647
          990    0.00602647
         1000    0.00602647
         1010    0.00602647
         1020    0.00602647
         1030    0.00602647
         1040    0.00602647
         1050    0.00602647
         1060    0.00602647
         1070    0.00602647
         1080    0.00602647
         1090    0.00602647
         1100    0.00602647
         1110    0.00602647
         1120    0.00602647
         1130    0.00602647
         1140    0.00602647
         1150    0.00602647
         1160    0.00602647
         1170    0.00602647
         1180    0.00602647
         1190    0.00602647
         1200    0.00602647
         1210    0.00602647
         1220    0.00602647
         1230    0.00602647
         1240    0.00602647
         1250    0.00602647
         1260    0.00602647
         1270    0.00602647
         1280    0.00602647
         1290    0.00602647
         1300    0.00602647
         1310    0.00602647
         1320    0.00602647
         1330    0.00602647
         1340    0.00602647
         1350    0.00602647
         1360    0.00602647
         1370    0.00602647
         1380    0.00602647
         1390    0.00602647
         1400    0.00602647
         1410    0.00602647
         1420    0.00602647
         1430    0.00602647
         1440    0.00602647
         1450    0.00602647
         1460    0.00602647
         1470    0.00602647
         1480    0.00602647
         1490    0.00602647
         1500    0.00602647
         1510    0.00602647
         1520    0.00602647
         1530    0.00602647
         1540    0.00602647
         1550    0.00602647
         1560    0.00602647
         1570    0.00602647
         1580    0.00602647
         1590    0.00602647
         1600    0.00602647
         1610    0.00602647
         1620    0.00602647
         1630    0.00602647
         1640    0.00602647
         1650    0.00602647
         1660    0.00602647
         1670    0.00602647
         1680    0.00602647
         1690    0.00602647
         1700    0.00602647
         1710    0.00602647
         1720    0.00602647
         1730    0.00602646
         1740    0.00602646
         1750    0.00602646
         1760    0.00602646
         1770    0.00602646
         1780    0.00602646
         1790    0.00602646
         1800    0.00602646
         1810    0.00602646
         1820    0.00602646
         1830    0.00602646
         1840    0.00602646
         1850    0.00602646
         1860    0.00602646
         1870    0.00602646
         1880    0.00602646
         1890    0.00602646
         1900    0.00602646
         1910    0.00602646
         1920    0.00602646
         1930    0.00602646
         1940    0.00602646
         1950    0.00602646
         1960    0.00602646
         1970    0.00602646
         1980    0.00602646
         1990    0.00602646
         2000    0.00602646
         2010    0.00602646
         2020    0.00602646
         2030    0.00602646
         2040    0.00602646
         2050    0.00602646
         2060    0.00602646
         2070    0.00602646
         2080    0.00602646
         2090    0.00602646
         2100    0.00602646
         2110    0.00602646
         2120    0.00602646
         2130    0.00602646
         2140    0.00602646
         2150    0.00602646
         2160    0.00602646
         2170    0.00602646
         2180    0.00602646
         2190    0.00602646
         2200    0.00602646
         2210    0.00602646
         2220    0.00602646
         2230    0.00602646
         2240    0.00602646
         2250    0.00602646
         2260    0.00602646
         2270    0.00602646
         2280    0.00602646
         2290    0.00602646
         2300    0.00602646
         2310    0.00602646
         2320    0.00602646
         2330    0.00602646
         2340    0.00602646
         2350    0.00602646
         2360    0.00602646
         2370    0.00602646
         2380    0.00602646
         2390    0.00602646
         2400    0.00602646
         2410    0.00602646
         2420    0.00602646
         2430    0.00602646
         2440    0.00602646
         2450    0.00602646
         2460    0.00602646
         2470    0.00602646
         2480    0.00602646
         2490    0.00602646
         2500    0.00602646
         2510    0.00602646
         2520    0.00602646
         2530    0.00602646
         2540    0.00602646
         2550    0.00602646
         2560    0.00602646
         2570    0.00602646
         2580    0.00602646
         2590    0.00602646
         2600    0.00602646
         2610    0.00602646
         2620    0.00602646
         2630    0.00602646
         2640    0.00602646
         2650    0.00602646
         2660    0.00602646
         2670    0.00602646
         2680    0.00602646
         2690    0.00602646
         2700    0.00602646
         2710    0.00602646
         2720    0.00602646
         2730    0.00602646
         2740    0.00602646
         2750    0.00602646
         2760    0.00602646
         2770    0.00602646
         2780    0.00602646
         2790    0.00602646
         2800    0.00602646
         2810    0.00602646
         2820    0.00602646
         2830    0.00602646
         2840    0.00602646
         2850    0.00602646
         2860    0.00602646
         2870    0.00602645
         2880    0.00602645
         2890    0.00602645
         2900    0.00602645
         2910    0.00602645
         2920    0.00602645
         2930    0.00602645
         2940    0.00602645
         2950    0.00602645
         2960    0.00602645
         2970    0.00602645
         2980    0.00602645
         2990    0.00602645
         3000    0.00602645
         3010    0.00602645
         3020    0.00602645
         3030    0.00602645
         3040    0.00602645
         3050    0.00602645
         3060    0.00602645
         3070    0.00602645
         3080    0.00602645
         3090    0.00602645
         3100    0.00602645
         3110    0.00602645
         3120    0.00602645
         3130    0.00602645
         3140    0.00602645
         3150    0.00602645
         3160    0.00602645
         3170    0.00602645
         3180    0.00602645
         3190    0.00602645
         3200    0.00602645
         3210    0.00602645
         3220    0.00602645
         3230    0.00602645
         3240    0.00602645
         3250    0.00602645
         3260    0.00602645
         3270    0.00602645
         3280    0.00602645
         3290    0.00602645
         3300    0.00602645
         3310    0.00602645
         3320    0.00602645
         3330    0.00602645
         3340    0.00602645
         3350    0.00602645
         3360    0.00602644
         3370    0.00602644
         3380    0.00602644
         3390    0.00602644
         3400    0.00602644
         3410    0.00602644
         3420    0.00602644
         3430    0.00602644
         3440    0.00602644
         3450    0.00602644
         3460    0.00602644
         3470    0.00602644
         3480    0.00602644
         3490    0.00602644
         3500    0.00602644
         3510    0.00602644
         3520    0.00602644
         3530    0.00602644
         3540    0.00602644
         3550    0.00602644
         3560    0.00602644
         3570    0.00602644
         3580    0.00602644
         3590    0.00602644
         3600    0.00602644
         3610    0.00602644
         3620    0.00602644
         3630    0.00602644
         3640    0.00602644
         3650    0.00602644
         3660    0.00602644
         3670    0.00602644
         3680    0.00602644
         3690    0.00602643
         3700    0.00602643
         3710    0.00602643
         3720    0.00602643
         3730    0.00602643
         3740    0.00602643
         3750    0.00602643
         3760    0.00602643
         3770    0.00602643
         3780    0.00602643
         3790    0.00602643
         3800    0.00602643
         3810    0.00602643
         3820    0.00602643
         3830    0.00602643
         3840    0.00602643
         3850    0.00602643
         3860    0.00602643
         3870    0.00602643
         3880    0.00602643
         3890    0.00602643
         3900    0.00602643
         3910    0.00602643
         3920    0.00602643
         3930    0.00602643
         3940    0.00602643
         3950    0.00602643
         3960    0.00602642
         3970    0.00602642
         3980    0.00602642
         3990    0.00602642
         4000    0.00602642
         4010    0.00602642
         4020    0.00602642
         4030    0.00602642
         4040    0.00602642
         4050    0.00602642
         4060    0.00602642
         4070    0.00602642
         4080    0.00602642
         4090    0.00602642
         4100    0.00602642
         4110    0.00602642
         4120    0.00602642
         4130    0.00602642
         4140    0.00602642
         4150    0.00602642
         4160    0.00602642
         4170    0.00602641
         4180    0.00602641
         4190    0.00602641
         4200    0.00602641
         4210    0.00602641
         4220    0.00602641
         4230    0.00602641
         4240    0.00602641
         4250    0.00602641
         4260    0.00602641
         4270    0.00602641
         4280    0.00602641
         4290    0.00602641
         4300    0.00602641
         4310    0.00602641
         4320    0.00602641
         4330    0.00602641
         4340    0.00602641
         4350    0.00602641
         4360     0.0060264
         4370     0.0060264
         4380     0.0060264
         4390     0.0060264
         4400     0.0060264
         4410     0.0060264
         4420     0.0060264
         4430     0.0060264
         4440     0.0060264
         4450     0.0060264
         4460     0.0060264
         4470     0.0060264
         4480     0.0060264
         4490     0.0060264
         4500     0.0060264
         4510     0.0060264
         4520     0.0060264
         4530    0.00602639
         4540    0.00602639
         4550    0.00602639
         4560    0.00602639
         4570    0.00602639
         4580    0.00602639
         4590    0.00602639
         4600    0.00602639
         4610    0.00602639
         4620    0.00602639
         4630    0.00602639
         4640    0.00602639
         4650    0.00602639
         4660    0.00602639
         4670    0.00602639
         4680    0.00602638
         4690    0.00602638
         4700    0.00602638
         4710    0.00602638
         4720    0.00602638
         4730    0.00602638
         4740    0.00602638
         4750    0.00602638
         4760    0.00602638
         4770    0.00602638
         4780    0.00602638
         4790    0.00602638
         4800    0.00602638
         4810    0.00602638
         4820    0.00602637
         4830    0.00602637
         4840    0.00602637
         4850    0.00602637
         4860    0.00602637
         4870    0.00602637
         4880    0.00602637
         4890    0.00602637
         4900    0.00602637
         4910    0.00602637
         4920    0.00602637
         4930    0.00602637
         4940    0.00602636
         4950    0.00602636
         4960    0.00602636
         4970    0.00602636
         4980    0.00602636
         4990    0.00602636
         5000    0.00602636
         5010    0.00602636
         5020    0.00602636
         5030    0.00602636
         5040    0.00602636
         5050    0.00602636
         5060    0.00602635
         5070    0.00602635
         5080    0.00602635
         5090    0.00602635
         5100    0.00602635
         5110    0.00602635
         5120    0.00602635
         5130    0.00602635
         5140    0.00602635
         5150    0.00602635
         5160    0.00602635
         5170    0.00602634
         5180    0.00602634
         5190    0.00602634
         5200    0.00602634
         5210    0.00602634
         5220    0.00602634
         5230    0.00602634
         5240    0.00602634
         5250    0.00602634
         5260    0.00602634
         5270    0.00602633
         5280    0.00602633
         5290    0.00602633
         5300    0.00602633
         5310    0.00602633
         5320    0.00602633
         5330    0.00602633
         5340    0.00602633
         5350    0.00602633
         5360    0.00602633
         5370    0.00602632
         5380    0.00602632
         5390    0.00602632
         5400    0.00602632
         5410    0.00602632
         5420    0.00602632
         5430    0.00602632
         5440    0.00602632
         5450    0.00602632
         5460    0.00602631
         5470    0.00602631
         5480    0.00602631
         5490    0.00602631
         5500    0.00602631
         5510    0.00602631
         5520    0.00602631
         5530    0.00602631
         5540    0.00602631
         5550     0.0060263
         5560     0.0060263
         5570     0.0060263
         5580     0.0060263
         5590     0.0060263
         5600     0.0060263
         5610     0.0060263
         5620     0.0060263
         5630    0.00602629
         5640    0.00602629
         5650    0.00602629
         5660    0.00602629
         5670    0.00602629
         5680    0.00602629
         5690    0.00602629
         5700    0.00602629
         5710    0.00602628
         5720    0.00602628
         5730    0.00602628
         5740    0.00602628
         5750    0.00602628
         5760    0.00602628
         5770    0.00602628
         5780    0.00602628
         5790    0.00602627
         5800    0.00602627
         5810    0.00602627
         5820    0.00602627
         5830    0.00602627
         5840    0.00602627
         5850    0.00602627
         5860    0.00602626
         5870    0.00602626
         5880    0.00602626
         5890    0.00602626
         5900    0.00602626
         5910    0.00602626
         5920    0.00602626
         5930    0.00602625
         5940    0.00602625
         5950    0.00602625
         5960    0.00602625
         5970    0.00602625
         5980    0.00602625
         5990    0.00602625
         6000    0.00602624
         6010    0.00602624
         6020    0.00602624
         6030    0.00602624
         6040    0.00602624
         6050    0.00602624
         6060    0.00602624
         6070    0.00602623
         6080    0.00602623
         6090    0.00602623
         6100    0.00602623
         6110    0.00602623
         6120    0.00602623
         6130    0.00602622
         6140    0.00602622
         6150    0.00602622
         6160    0.00602622
         6170    0.00602622
         6180    0.00602622
         6190    0.00602622
         6200    0.00602621
         6210    0.00602621
         6220    0.00602621
         6230    0.00602621
         6240    0.00602621
         6250    0.00602621
         6260     0.0060262
         6270     0.0060262
         6280     0.0060262
         6290     0.0060262
         6300     0.0060262
         6310     0.0060262
         6320    0.00602619
         6330    0.00602619
         6340    0.00602619
         6350    0.00602619
         6360    0.00602619
         6370    0.00602618
         6380    0.00602618
         6390    0.00602618
         6400    0.00602618
         6410    0.00602618
         6420    0.00602618
         6430    0.00602617
         6440    0.00602617
         6450    0.00602617
         6460    0.00602617
         6470    0.00602617
         6480    0.00602616
         6490    0.00602616
         6500    0.00602616
         6510    0.00602616
         6520    0.00602616
         6530    0.00602616
         6540    0.00602615
         6550    0.00602615
         6560    0.00602615
         6570    0.00602615
         6580    0.00602615
         6590    0.00602614
         6600    0.00602614
         6610    0.00602614
         6620    0.00602614
         6630    0.00602614
         6640    0.00602613
         6650    0.00602613
         6660    0.00602613
         6670    0.00602613
         6680    0.00602613
         6690    0.00602612
         6700    0.00602612
         6710    0.00602612
         6720    0.00602612
         6730    0.00602612
         6740    0.00602611
         6750    0.00602611
         6760    0.00602611
         6770    0.00602611
         6780     0.0060261
         6790     0.0060261
         6800     0.0060261
         6810     0.0060261
         6820     0.0060261
         6830    0.00602609
         6840    0.00602609
         6850    0.00602609
         6860    0.00602609
         6870    0.00602608
         6880    0.00602608
         6890    0.00602608
         6900    0.00602608
         6910    0.00602608
         6920    0.00602607
         6930    0.00602607
         6940    0.00602607
         6950    0.00602607
         6960    0.00602606
         6970    0.00602606
         6980    0.00602606
         6990    0.00602606
         7000    0.00602606
         7010    0.00602605
         7020    0.00602605
         7030    0.00602605
         7040    0.00602605
         7050    0.00602604
         7060    0.00602604
         7070    0.00602604
         7080    0.00602604
         7090    0.00602603
         7100    0.00602603
         7110    0.00602603
         7120    0.00602603
         7130    0.00602602
         7140    0.00602602
         7150    0.00602602
         7160    0.00602602
         7170    0.00602601
         7180    0.00602601
         7190    0.00602601
         7200    0.00602601
         7210      0.006026
         7220      0.006026
         7230      0.006026
         7240      0.006026
         7250    0.00602599
         7260    0.00602599
         7270    0.00602599
         7280    0.00602599
         7290    0.00602598
         7300    0.00602598
         7310    0.00602598
         7320    0.00602597
         7330    0.00602597
         7340    0.00602597
         7350    0.00602597
         7360    0.00602596
         7370    0.00602596
         7380    0.00602596
         7390    0.00602596
         7400    0.00602595
         7410    0.00602595
         7420    0.00602595
         7430    0.00602594
         7440    0.00602594
         7450    0.00602594
         7460    0.00602594
         7470    0.00602593
         7480    0.00602593
         7490    0.00602593
         7500    0.00602592
         7510    0.00602592
         7520    0.00602592
         7530    0.00602592
         7540    0.00602591
         7550    0.00602591
         7560    0.00602591
         7570     0.0060259
         7580     0.0060259
         7590     0.0060259
         7600    0.00602589
         7610    0.00602589
         7620    0.00602589
         7630    0.00602589
         7640    0.00602588
         7650    0.00602588
         7660    0.00602588
         7670    0.00602587
         7680    0.00602587
         7690    0.00602587
         7700    0.00602586
         7710    0.00602586
         7720    0.00602586
         7730    0.00602585
         7740    0.00602585
         7750    0.00602585
         7760    0.00602584
         7770    0.00602584
         7780    0.00602584
         7790    0.00602584
         7800    0.00602583
         7810    0.00602583
         7820    0.00602583
         7830    0.00602582
         7840    0.00602582
         7850    0.00602582
         7860    0.00602581
         7870    0.00602581
         7880    0.00602581
         7890     0.0060258
         7900     0.0060258
         7910     0.0060258
         7920    0.00602579
         7930    0.00602579
         7940    0.00602579
         7950    0.00602578
         7960    0.00602578
         7970    0.00602577
         7980    0.00602577
         7990    0.00602577
         8000    0.00602576
         8010    0.00602576
         8020    0.00602576
         8030    0.00602575
         8040    0.00602575
         8050    0.00602575
         8060    0.00602574
         8070    0.00602574
         8080    0.00602574
         8090    0.00602573
         8100    0.00602573
         8110    0.00602572
         8120    0.00602572
         8130    0.00602572
         8140    0.00602571
         8150    0.00602571
         8160    0.00602571
         8170     0.0060257
         8180     0.0060257
         8190     0.0060257
         8200    0.00602569
         8210    0.00602569
         8220    0.00602568
         8230    0.00602568
         8240    0.00602568
         8250    0.00602567
         8260    0.00602567
         8270    0.00602566
         8280    0.00602566
         8290    0.00602566
         8300    0.00602565
         8310    0.00602565
         8320    0.00602564
         8330    0.00602564
         8340    0.00602564
         8350    0.00602563
         8360    0.00602563
         8370    0.00602562
         8380    0.00602562
         8390    0.00602562
         8400    0.00602561
         8410    0.00602561
         8420     0.0060256
         8430     0.0060256
         8440     0.0060256
         8450    0.00602559
         8460    0.00602559
         8470    0.00602558
         8480    0.00602558
         8490    0.00602558
         8500    0.00602557
         8510    0.00602557
         8520    0.00602556
         8530    0.00602556
         8540    0.00602555
         8550    0.00602555
         8560    0.00602555
         8570    0.00602554
         8580    0.00602554
         8590    0.00602553
         8600    0.00602553
         8610    0.00602552
         8620    0.00602552
         8630    0.00602552
         8640    0.00602551
         8650    0.00602551
         8660     0.0060255
         8670     0.0060255
         8680    0.00602549
         8690    0.00602549
         8700    0.00602548
         8710    0.00602548
         8720    0.00602547
         8730    0.00602547
         8740    0.00602547
         8750    0.00602546
         8760    0.00602546
         8770    0.00602545
         8780    0.00602545
         8790    0.00602544
         8800    0.00602544
         8810    0.00602543
         8820    0.00602543
         8830    0.00602542
         8840    0.00602542
         8850    0.00602541
         8860    0.00602541
         8870     0.0060254
         8880     0.0060254
         8890     0.0060254
         8900    0.00602539
         8910    0.00602539
         8920    0.00602538
         8930    0.00602538
         8940    0.00602537
         8950    0.00602537
         8960    0.00602536
         8970    0.00602536
         8980    0.00602535
         8990    0.00602535
         9000    0.00602534
         9010    0.00602534
         9020    0.00602533
         9030    0.00602533
         9040    0.00602532
         9050    0.00602532
         9060    0.00602531
         9070    0.00602531
         9080     0.0060253
         9090     0.0060253
         9100    0.00602529
         9110    0.00602529
         9120    0.00602528
         9130    0.00602527
         9140    0.00602527
         9150    0.00602526
         9160    0.00602526
         9170    0.00602525
         9180    0.00602525
         9190    0.00602524
         9200    0.00602524
         9210    0.00602523
         9220    0.00602523
         9230    0.00602522
         9240    0.00602522
         9250    0.00602521
         9260    0.00602521
         9270     0.0060252
         9280    0.00602519
         9290    0.00602519
         9300    0.00602518
         9310    0.00602518
         9320    0.00602517
         9330    0.00602517
         9340    0.00602516
         9350    0.00602516
         9360    0.00602515
         9370    0.00602514
         9380    0.00602514
         9390    0.00602513
         9400    0.00602513
         9410    0.00602512
         9420    0.00602512
         9430    0.00602511
         9440     0.0060251
         9450     0.0060251
         9460    0.00602509
         9470    0.00602509
         9480    0.00602508
         9490    0.00602507
         9500    0.00602507
         9510    0.00602506
         9520    0.00602506
         9530    0.00602505
         9540    0.00602505
         9550    0.00602504
         9560    0.00602503
         9570    0.00602503
         9580    0.00602502
         9590    0.00602502
         9600    0.00602501
         9610      0.006025
         9620      0.006025
         9630    0.00602499
         9640    0.00602498
         9650    0.00602498
         9660    0.00602497
         9670    0.00602497
         9680    0.00602496
         9690    0.00602495
         9700    0.00602495
         9710    0.00602494
         9720    0.00602493
         9730    0.00602493
         9740    0.00602492
         9750    0.00602492
         9760    0.00602491
         9770     0.0060249
         9780     0.0060249
         9790    0.00602489
         9800    0.00602488
         9810    0.00602488
         9820    0.00602487
         9830    0.00602486
         9840    0.00602486
         9850    0.00602485
         9860    0.00602484
         9870    0.00602484
         9880    0.00602483
         9890    0.00602482
         9900    0.00602482
         9910    0.00602481
         9920     0.0060248
         9930     0.0060248
         9940    0.00602479
         9950    0.00602478
         9960    0.00602478
         9970    0.00602477
         9980    0.00602476
         9990    0.00602476
        10000    0.00602475
        10010    0.00602474
        10020    0.00602474
        10030    0.00602473
        10040    0.00602472
        10050    0.00602472
        10060    0.00602471
        10070     0.0060247
        10080    0.00602469
        10090    0.00602469
        10100    0.00602468
        10110    0.00602467
        10120    0.00602467
        10130    0.00602466
        10140    0.00602465
        10150    0.00602465
        10160    0.00602464
        10170    0.00602463
        10180    0.00602462
        10190    0.00602462
        10200    0.00602461
        10210     0.0060246
        10220    0.00602459
        10230    0.00602459
        10240    0.00602458
        10250    0.00602457
        10260    0.00602456
        10270    0.00602456
        10280    0.00602455
        10290    0.00602454
        10300    0.00602453
        10310    0.00602453
        10320    0.00602452
        10330    0.00602451
        10340     0.0060245
        10350     0.0060245
        10360    0.00602449
        10370    0.00602448
        10380    0.00602447
        10390    0.00602447
        10400    0.00602446
        10410    0.00602445
        10420    0.00602444
        10430    0.00602444
        10440    0.00602443
        10450    0.00602442
        10460    0.00602441
        10470     0.0060244
        10480     0.0060244
        10490    0.00602439
        10500    0.00602438
        10510    0.00602437
        10520    0.00602436
        10530    0.00602436
        10540    0.00602435
        10550    0.00602434
        10560    0.00602433
        10570    0.00602432
        10580    0.00602432
        10590    0.00602431
        10600     0.0060243
        10610    0.00602429
        10620    0.00602428
        10630    0.00602428
        10640    0.00602427
        10650    0.00602426
        10660    0.00602425
        10670    0.00602424
        10680    0.00602423
        10690    0.00602423
        10700    0.00602422