# Probe 0 (0.05 0.05 0.005)
#       Probe             0
#        Time
           24     0.0123506
           40     0.0123506
           50     0.0123506
           60     0.0123506
           70     0.0123506
           80     0.0123506
           90     0.0123506
          100     0.0123506
          110     0.0123506
          120     0.0123506
          130     0.0123506
          140     0.0123506
          150     0.0123506
          160     0.0123506
          170     0.0123506
          180     0.0123506
          190     0.0123506
          200     0.0123506
          210     0.0123506
          220     0.0123506
          230     0.0123506
          240     0.0123506
          250     0.0123506
          260     0.0123506
          270     0.0123506
          280     0.0123506
          290     0.0123506
          300     0.0123506
          310     0.0123506
          320     0.0123506
          330     0.0123506
          340     0.0123506
          350     0.0123506
          360     0.0123506
          370     0.0123506
          380     0.0123506
          390     0.0123506
          400     0.0123506
          410     0.0123506
          420     0.0123506
          430     0.0123506
          440     0.0123506
          450     0.0123506
          460     0.0123506
          470     0.0123506
          480     0.0123506
          490     0.0123506
          500     0.0123506
          510     0.0123506
          520     0.0123506
          530     0.0123506
          540     0.0123506
          550     0.0123506
          560     0.0123506
          570     0.0123506
          580     0.0123506
          590     0.0123506
          600     0.0123506
          610     0.0123506
          620     0.0123506
          630     0.0123506
          640     0.0123506
          650     0.0123506
          660     0.0123506
          670     0.0123506
          680     0.0123506
          690     0.0123506
          700     0.0123506
          710     0.0123506
          720     0.0123506
          730     0.0123506
          740     0.0123506
          750     0.0123506
          760     0.0123506
          770     0.0123506
          780     0.0123506
          790     0.0123506
          800     0.0123506
          810     0.0123506
          820     0.0123506
          830     0.0123506
          840     0.0123506
          850     0.0123506
          860     0.0123506
          870     0.0123506
          880     0.0123506
          890     0.0123506
          900     0.0123506
          910     0.0123506
          920     0.0123506
          930     0.0123506
          940     0.0123506
          950     0.0123506
          960     0.0123506
          970     0.0123506
          980     0.0123506
          990     0.0123506
         1000     0.0123506
         1010     0.0123506
         1020     0.0123506
         1030     0.0123506
         1040     0.0123506
         1050     0.0123506
         1060     0.0123506
         1070     0.0123506
         1080     0.0123506
         1090     0.0123506
         1100     0.0123506
         1110     0.0123506
         1120     0.0123506
         1130     0.0123506
         1140     0.0123506
         1150     0.0123506
         1160     0.0123506
         1170     0.0123506
         1180     0.0123506
         1190     0.0123506
         1200     0.0123506
         1210     0.0123506
         1220     0.0123506
         1230     0.0123506
         1240     0.0123505
         1250     0.0123505
         1260     0.0123505
         1270     0.0123505
         1280     0.0123505
         1290     0.0123505
         1300     0.0123505
         1310     0.0123505
         1320     0.0123505
         1330     0.0123505
         1340     0.0123505
         1350     0.0123505
         1360     0.0123505
         1370     0.0123505
         1380     0.0123505
         1390     0.0123505
         1400     0.0123505
         1410     0.0123505
         1420     0.0123505
         1430     0.0123505
         1440     0.0123505
         1450     0.0123505
         1460     0.0123505
         1470     0.0123505
         1480     0.0123505
         1490     0.0123505
         1500     0.0123505
         1510     0.0123505
         1520     0.0123505
         1530     0.0123505
         1540     0.0123505
         1550     0.0123505
         1560     0.0123505
         1570     0.0123505
         1580     0.0123505
         1590     0.0123505
         1600     0.0123505
         1610     0.0123505
         1620     0.0123505
         1630     0.0123505
         1640     0.0123505
         1650     0.0123505
         1660     0.0123505
         1670     0.0123505
         1680     0.0123505
         1690     0.0123505
         1700     0.0123505
         1710     0.0123505
         1720     0.0123505
         1730     0.0123505
         1740     0.0123505
         1750     0.0123505
         1760     0.0123505
         1770     0.0123505
         1780     0.0123505
         1790     0.0123505
         1800     0.0123505
         1810     0.0123505
         1820     0.0123505
         1830     0.0123505
         1840     0.0123505
         1850     0.0123505
         1860     0.0123505
         1870     0.0123505
         1880     0.0123505
         1890     0.0123505
         1900     0.0123505
         1910     0.0123505
         1920     0.0123505
         1930     0.0123505
         1940     0.0123505
         1950     0.0123505
         1960     0.0123505
         1970     0.0123505
         1980     0.0123505
         1990     0.0123505
         2000     0.0123505
         2010     0.0123505
         2020     0.0123505
         2030     0.0123505
         2040     0.0123505
         2050     0.0123505
         2060     0.0123505
         2070     0.0123505
         2080     0.0123505
         2090     0.0123505
         2100     0.0123505
         2110     0.0123505
         2120     0.0123505
         2130     0.0123505
         2140     0.0123505
         2150     0.0123505
         2160     0.0123505
         2170     0.0123505
         2180     0.0123505
         2190     0.0123505
         2200     0.0123505
         2210     0.0123505
         2220     0.0123505
         2230     0.0123505
         2240     0.0123505
         2250     0.0123505
         2260     0.0123505
         2270     0.0123505
         2280     0.0123505
         2290     0.0123505
         2300     0.0123505
         2310     0.0123505
         2320     0.0123505
         2330     0.0123505
         2340     0.0123505
         2350     0.0123505
         2360     0.0123505
         2370     0.0123505
         2380     0.0123505
         2390     0.0123505
         2400     0.0123505
         2410     0.0123505
         2420     0.0123505
         2430     0.0123505
         2440     0.0123505
         2450     0.0123505
         2460     0.0123505
         2470     0.0123505
         2480     0.0123505
         2490     0.0123505
         2500     0.0123505
         2510     0.0123505
         2520     0.0123505
         2530     0.0123505
         2540     0.0123505
         2550     0.0123505
         2560     0.0123505
         2570     0.0123505
         2580     0.0123505
         2590     0.0123505
         2600     0.0123505
         2610     0.0123505
         2620     0.0123505
         2630     0.0123505
         2640     0.0123505
         2650     0.0123505
         2660     0.0123505
         2670     0.0123505
         2680     0.0123505
         2690     0.0123505
         2700     0.0123505
         2710     0.0123505
         2720     0.0123505
         2730     0.0123505
         2740     0.0123505
         2750     0.0123505
         2760     0.0123505
         2770     0.0123505
         2780     0.0123505
         2790     0.0123505
         2800     0.0123505
         2810     0.0123505
         2820     0.0123505
         2830     0.0123505
         2840     0.0123505
         2850     0.0123505
         2860     0.0123505
         2870     0.0123505
         2880     0.0123505
         2890     0.0123505
         2900     0.0123505
         2910     0.0123505
         2920     0.0123505
         2930     0.0123505
         2940     0.0123505
         2950     0.0123505
         2960     0.0123505
         2970     0.0123505
         2980     0.0123505
         2990     0.0123505
         3000     0.0123505
         3010     0.0123505
         3020     0.0123505
         3030     0.0123505
         3040     0.0123505
         3050     0.0123505
         3060     0.0123505
         3070     0.0123505
         3080     0.0123505
         3090     0.0123505
         3100     0.0123505
         3110     0.0123505
         3120     0.0123505
         3130     0.0123505
         3140     0.0123505
         3150     0.0123505
         3160     0.0123505
         3170     0.0123505
         3180     0.0123505
         3190     0.0123505
         3200     0.0123505
         3210     0.0123505
         3220     0.0123505
         3230     0.0123505
         3240     0.0123505
         3250     0.0123505
         3260     0.0123505
         3270     0.0123505
         3280     0.0123505
         3290     0.0123505
         3300     0.0123505
         3310     0.0123505
         3320     0.0123505
         3330     0.0123505
         3340     0.0123505
         3350     0.0123505
         3360     0.0123505
         3370     0.0123505
         3380     0.0123505
         3390     0.0123505
         3400     0.0123505
         3410     0.0123505
         3420     0.0123505
         3430     0.0123505
         3440     0.0123505
         3450     0.0123505
         3460     0.0123505
         3470     0.0123505
         3480     0.0123505
         3490     0.0123505
         3500     0.0123505
         3510     0.0123505
         3520     0.0123505
         3530     0.0123505
         3540     0.0123505
         3550     0.0123504
         3560     0.0123504
         3570     0.0123504
         3580     0.0123504
         3590     0.0123504
         3600     0.0123504
         3610     0.0123504
         3620     0.0123504
         3630     0.0123504
         3640     0.0123504
         3650     0.0123504
         3660     0.0123504
         3670     0.0123504
         3680     0.0123504
         3690     0.0123504
         3700     0.0123504
         3710     0.0123504
         3720     0.0123504
         3730     0.0123504
         3740     0.0123504
         3750     0.0123504
         3760     0.0123504
         3770     0.0123504
         3780     0.0123504
         3790     0.0123504
         3800     0.0123504
         3810     0.0123504
         3820     0.0123504
         3830     0.0123504
         3840     0.0123504
         3850     0.0123504
         3860     0.0123504
         3870     0.0123504
         3880     0.0123504
         3890     0.0123504
         3900     0.0123504
         3910     0.0123504
         3920     0.0123504
         3930     0.0123504
         3940     0.0123504
         3950     0.0123504
         3960     0.0123504
         3970     0.0123504
         3980     0.0123504
         3990     0.0123504
         4000     0.0123504
         4010     0.0123504
         4020     0.0123504
         4030     0.0123504
         4040     0.0123504
         4050     0.0123504
         4060     0.0123504
         4070     0.0123504
         4080     0.0123504
         4090     0.0123504
         4100     0.0123504
         4110     0.0123504
         4120     0.0123504
         4130     0.0123504
         4140     0.0123504
         4150     0.0123504
         4160     0.0123504
         4170     0.0123504
         4180     0.0123504
         4190     0.0123504
         4200     0.0123504
         4210     0.0123503
         4220     0.0123503
         4230     0.0123503
         4240     0.0123503
         4250     0.0123503
         4260     0.0123503
         4270     0.0123503
         4280     0.0123503
         4290     0.0123503
         4300     0.0123503
         4310     0.0123503
         4320     0.0123503
         4330     0.0123503
         4340     0.0123503
         4350     0.0123503
         4360     0.0123503
         4370     0.0123503
         4380     0.0123503
         4390     0.0123503
         4400     0.0123503
         4410     0.0123503
         4420     0.0123503
         4430     0.0123503
         4440     0.0123503
         4450     0.0123503
         4460     0.0123503
         4470     0.0123503
         4480     0.0123503
         4490     0.0123503
         4500     0.0123503
         4510     0.0123503
         4520     0.0123503
         4530     0.0123503
         4540     0.0123503
         4550     0.0123503
         4560     0.0123503
         4570     0.0123503
         4580     0.0123503
         4590     0.0123503
         4600     0.0123503
         4610     0.0123503
         4620     0.0123503
         4630     0.0123503
         4640     0.0123503
         4650     0.0123502
         4660     0.0123502
         4670     0.0123502
         4680     0.0123502
         4690     0.0123502
         4700     0.0123502
         4710     0.0123502
         4720     0.0123502
         4730     0.0123502
         4740     0.0123502
         4750     0.0123502
         4760     0.0123502
         4770     0.0123502
         4780     0.0123502
         4790     0.0123502
         4800     0.0123502
         4810     0.0123502
         4820     0.0123502
         4830     0.0123502
         4840     0.0123502
         4850     0.0123502
         4860     0.0123502
         4870     0.0123502
         4880     0.0123502
         4890     0.0123502
         4900     0.0123502
         4910     0.0123502
         4920     0.0123502
         4930     0.0123502
         4940     0.0123502
         4950     0.0123502
         4960     0.0123502
         4970     0.0123502
         4980     0.0123502
         4990     0.0123502
         5000     0.0123501
         5010     0.0123501
         5020     0.0123501
         5030     0.0123501
         5040     0.0123501
         5050     0.0123501
         5060     0.0123501
         5070     0.0123501
         5080     0.0123501
         5090     0.0123501
         5100     0.0123501
         5110     0.0123501
         5120     0.0123501
         5130     0.0123501
         5140     0.0123501
         5150     0.0123501
         5160     0.0123501
         5170     0.0123501
         5180     0.0123501
         5190     0.0123501
         5200     0.0123501
         5210     0.0123501
         5220     0.0123501
         5230     0.0123501
         5240     0.0123501
         5250     0.0123501
         5260     0.0123501
         5270     0.0123501
         5280       0.01235
         5290       0.01235
         5300       0.01235
         5310       0.01235
         5320       0.01235
         5330       0.01235
         5340       0.01235
         5350       0.01235
         5360       0.01235
         5370       0.01235
         5380       0.01235
         5390       0.01235
         5400       0.01235
         5410       0.01235
         5420       0.01235
         5430       0.01235
         5440       0.01235
         5450       0.01235
         5460       0.01235
         5470       0.01235
         5480       0.01235
         5490       0.01235
         5500       0.01235
         5510       0.01235
         5520       0.01235
         5530     0.0123499
         5540     0.0123499
         5550     0.0123499
         5560     0.0123499
         5570     0.0123499
         5580     0.0123499
         5590     0.0123499
         5600     0.0123499
         5610     0.0123499
         5620     0.0123499
         5630     0.0123499
         5640     0.0123499
         5650     0.0123499
         5660     0.0123499
         5670     0.0123499
         5680     0.0123499
         5690     0.0123499
         5700     0.0123499
         5710     0.0123499
         5720     0.0123499
         5730     0.0123499
         5740     0.0123498
         5750     0.0123498
         5760     0.0123498
         5770     0.0123498
         5780     0.0123498
         5790     0.0123498
         5800     0.0123498
         5810     0.0123498
         5820     0.0123498
         5830     0.0123498
         5840     0.0123498
         5850     0.0123498
         5860     0.0123498
         5870     0.0123498
         5880     0.0123498
         5890     0.0123498
         5900     0.0123498
         5910     0.0123498
         5920     0.0123498
         5930     0.0123498
         5940     0.0123497
         5950     0.0123497
         5960     0.0123497
         5970     0.0123497
         5980     0.0123497
         5990     0.0123497
         6000     0.0123497
         6010     0.0123497
         6020     0.0123497
         6030     0.0123497
         6040     0.0123497
         6050     0.0123497
         6060     0.0123497
         6070     0.0123497
         6080     0.0123497
         6090     0.0123497
         6100     0.0123497
         6110     0.0123496
         6120     0.0123496
         6130     0.0123496
         6140     0.0123496
         6150     0.0123496
         6160     0.0123496
         6170     0.0123496
         6180     0.0123496
         6190     0.0123496
         6200     0.0123496
         6210     0.0123496
         6220     0.0123496
         6230     0.0123496
         6240     0.0123496
         6250     0.0123496
         6260     0.0123496
         6270     0.0123496
         6280     0.0123495
         6290     0.0123495
         6300     0.0123495
         6310     0.0123495
         6320     0.0123495
         6330     0.0123495
         6340     0.0123495
         6350     0.0123495
         6360     0.0123495
         6370     0.0123495
         6380     0.0123495
         6390     0.0123495
         6400     0.0123495
         6410     0.0123495
         6420     0.0123495
         6430     0.0123494
         6440     0.0123494
         6450     0.0123494
         6460     0.0123494
         6470     0.0123494
         6480     0.0123494
         6490     0.0123494
         6500     0.0123494
         6510     0.0123494
         6520     0.0123494
         6530     0.0123494
         6540     0.0123494
         6550     0.0123494
         6560     0.0123494
         6570     0.0123493
         6580     0.0123493
         6590     0.0123493
         6600     0.0123493
         6610     0.0123493
         6620     0.0123493
         6630     0.0123493
         6640     0.0123493
         6650     0.0123493
         6660     0.0123493
         6670     0.0123493
         6680     0.0123493
         6690     0.0123493
         6700     0.0123492
         6710     0.0123492
         6720     0.0123492
         6730     0.0123492
         6740     0.0123492
         6750     0.0123492
         6760     0.0123492
         6770     0.0123492
         6780     0.0123492
         6790     0.0123492
         6800     0.0123492
         6810     0.0123492
         6820     0.0123491
         6830     0.0123491
         6840     0.0123491
         6850     0.0123491
         6860     0.0123491
         6870     0.0123491
         6880     0.0123491
         6890     0.0123491
         6900     0.0123491
         6910     0.0123491
         6920     0.0123491
         6930     0.0123491
         6940      0.012349
         6950      0.012349
         6960      0.012349
         6970      0.012349
         6980      0.012349
         6990      0.012349
         7000      0.012349
         7010      0.012349
         7020      0.012349
         7030      0.012349
         7040      0.012349
         7050     0.0123489
         7060     0.0123489
         7070     0.0123489
         7080     0.0123489
         7090     0.0123489
         7100     0.0123489
         7110     0.0123489
         7120     0.0123489
         7130     0.0123489
         7140     0.0123489
         7150     0.0123489
         7160     0.0123488
         7170     0.0123488
         7180     0.0123488
         7190     0.0123488
         7200     0.0123488
         7210     0.0123488
         7220     0.0123488
         7230     0.0123488
         7240     0.0123488
         7250     0.0123488
         7260     0.0123487
         7270     0.0123487
         7280     0.0123487
         7290     0.0123487
         7300     0.0123487
         7310     0.0123487
         7320     0.0123487
         7330     0.0123487
         7340     0.0123487
         7350     0.0123487
         7360     0.0123486
         7370     0.0123486
         7380     0.0123486
         7390     0.0123486
         7400     0.0123486
         7410     0.0123486
         7420     0.0123486
         7430     0.0123486
         7440     0.0123486
         7450     0.0123486
         7460     0.0123485
         7470     0.0123485
         7480     0.0123485
         7490     0.0123485
         7500     0.0123485
         7510     0.0123485
         7520     0.0123485
         7530     0.0123485
         7540     0.0123485
         7550     0.0123484
         7560     0.0123484
         7570     0.0123484
         7580     0.0123484
         7590     0.0123484
         7600     0.0123484
         7610     0.0123484
         7620     0.0123484
         7630     0.0123484
         7640     0.0123483
         7650     0.0123483
         7660     0.0123483
         7670     0.0123483
         7680     0.0123483
         7690     0.0123483
         7700     0.0123483
         7710     0.0123483
         7720     0.0123482
         7730     0.0123482
         7740     0.0123482
         7750     0.0123482
         7760     0.0123482
         7770     0.0123482
         7780     0.0123482
         7790     0.0123482
         7800     0.0123481
         7810     0.0123481
         7820     0.0123481
         7830     0.0123481
         7840     0.0123481
         7850     0.0123481
         7860     0.0123481
         7870     0.0123481
         7880      0.012348
         7890      0.012348
         7900      0.012348
         7910      0.012348
         7920      0.012348
         7930      0.012348
         7940      0.012348
         7950      0.012348
         7960     0.0123479
         7970     0.0123479
         7980     0.0123479
         7990     0.0123479
         8000     0.0123479
         8010     0.0123479
         8020     0.0123479
         8030     0.0123479
         8040     0.0123478
         8050     0.0123478
         8060     0.0123478
         8070     0.0123478
         8080     0.0123478
         8090     0.0123478
         8100     0.0123478
         8110     0.0123477
         8120     0.0123477
         8130     0.0123477
         8140     0.0123477
         8150     0.0123477
         8160     0.0123477
         8170     0.0123477
         8180     0.0123476
         8190     0.0123476
         8200     0.0123476
         8210     0.0123476
         8220     0.0123476
         8230     0.0123476
         8240     0.0123476
         8250     0.0123475
         8260     0.0123475
         8270     0.0123475
         8280     0.0123475
         8290     0.0123475
         8300     0.0123475
         8310     0.0123475
         8320     0.0123474
         8330     0.0123474
         8340     0.0123474
         8350     0.0123474
         8360     0.0123474
         8370     0.0123474
         8380     0.0123474
         8390     0.0123473
         8400     0.0123473
         8410     0.0123473
         8420     0.0123473
         8430     0.0123473
         8440     0.0123473
         8450     0.0123472
         8460     0.0123472
         8470     0.0123472
         8480     0.0123472
         8490     0.0123472
         8500     0.0123472
         8510     0.0123471
         8520     0.0123471
         8530     0.0123471
         8540     0.0123471
         8550     0.0123471
         8560     0.0123471
         8570     0.0123471
         8580      0.012347
         8590      0.012347
         8600      0.012347
         8610      0.012347
         8620      0.012347
         8630      0.012347
         8640     0.0123469
         8650     0.0123469
         8660     0.0123469
         8670     0.0123469
         8680     0.0123469
         8690     0.0123468
         8700     0.0123468
         8710     0.0123468
         8720     0.0123468
         8730     0.0123468
         8740     0.0123468
         8750     0.0123467
         8760     0.0123467
         8770     0.0123467
         8780     0.0123467
         8790     0.0123467
         8800     0.0123467
         8810     0.0123466
         8820     0.0123466
         8830     0.0123466
         8840     0.0123466
         8850     0.0123466
         8860     0.0123466
         8870     0.0123465
         8880     0.0123465
         8890     0.0123465
         8900     0.0123465
         8910     0.0123465
         8920     0.0123464
         8930     0.0123464
         8940     0.0123464
         8950     0.0123464
         8960     0.0123464
         8970     0.0123463
         8980     0.0123463
         8990     0.0123463
         9000     0.0123463
         9010     0.0123463
         9020     0.0123463
         9030     0.0123462
         9040     0.0123462
         9050     0.0123462
         9060     0.0123462
         9070     0.0123462
         9080     0.0123461
         9090     0.0123461
         9100     0.0123461
         9110     0.0123461
         9120     0.0123461
         9130      0.012346
         9140      0.012346
         9150      0.012346
         9160      0.012346
         9170      0.012346
         9180     0.0123459
         9190     0.0123459
         9200     0.0123459
         9210     0.0123459
         9220     0.0123459
         9230     0.0123458
         9240     0.0123458
         9250     0.0123458
         9260     0.0123458
         9270     0.0123458
         9280     0.0123457
         9290     0.0123457
         9300     0.0123457
         9310     0.0123457
         9320     0.0123457
         9330     0.0123456
         9340     0.0123456
         9350     0.0123456
         9360     0.0123456
         9370     0.0123455
         9380     0.0123455
         9390     0.0123455
         9400     0.0123455
         9410     0.0123455
         9420     0.0123454
         9430     0.0123454
         9440     0.0123454
         9450     0.0123454
         9460     0.0123454
         9470     0.0123453
         9480     0.0123453
         9490     0.0123453
         9500     0.0123453
         9510     0.0123452
         9520     0.0123452
         9530     0.0123452
         9540     0.0123452
         9550     0.0123451
         9560     0.0123451
         9570     0.0123451
         9580     0.0123451
         9590     0.0123451
         9600      0.012345
         9610      0.012345
         9620      0.012345
         9630      0.012345
         9640     0.0123449
         9650     0.0123449
         9660     0.0123449
         9670     0.0123449
         9680     0.0123448
         9690     0.0123448
         9700     0.0123448
         9710     0.0123448
         9720     0.0123448
         9730     0.0123447
         9740     0.0123447
         9750     0.0123447
         9760     0.0123447
         9770     0.0123446
         9780     0.0123446
         9790     0.0123446
         9800     0.0123446
         9810     0.0123445
         9820     0.0123445
         9830     0.0123445
         9840     0.0123445
         9850     0.0123444
         9860     0.0123444
         9870     0.0123444
         9880     0.0123444
         9890     0.0123443
         9900     0.0123443
         9910     0.0123443
         9920     0.0123443
         9930     0.0123442
         9940     0.0123442
         9950     0.0123442
         9960     0.0123442
         9970     0.0123441
         9980     0.0123441
         9990     0.0123441
        10000     0.0123441
        10010      0.012344
        10020      0.012344
        10030      0.012344
        10040      0.012344
        10050     0.0123439
        10060     0.0123439
        10070     0.0123439
        10080     0.0123438
        10090     0.0123438
        10100     0.0123438
        10110     0.0123438
        10120     0.0123437
        10130     0.0123437
        10140     0.0123437
        10150     0.0123437
        10160     0.0123436
        10170     0.0123436
        10180     0.0123436
        10190     0.0123435
        10200     0.0123435
        10210     0.0123435
        10220     0.0123435
        10230     0.0123434
        10240     0.0123434
        10250     0.0123434
        10260     0.0123434
        10270     0.0123433
        10280     0.0123433
        10290     0.0123433
        10300     0.0123432
        10310     0.0123432
        10320     0.0123432
        10330     0.0123432
        10340     0.0123431
        10350     0.0123431
        10360     0.0123431
        10370      0.012343
        10380      0.012343
        10390      0.012343
        10400      0.012343
        10410     0.0123429
        10420     0.0123429
        10430     0.0123429
        10440     0.0123428
        10450     0.0123428
        10460     0.0123428
        10470     0.0123427
        10480     0.0123427
        10490     0.0123427
        10500     0.0123427
        10510     0.0123426
        10520     0.0123426
        10530     0.0123426
        10540     0.0123425
        10550     0.0123425
        10560     0.0123425
        10570     0.0123424
        10580     0.0123424
        10590     0.0123424
        10600     0.0123424
        10610     0.0123423
        10620     0.0123423
        10630     0.0123423
        10640     0.0123422
        10650     0.0123422
        10660     0.0123422
        10670     0.0123421
        10680     0.0123421
        10690     0.0123421
        10700      0.012342