# Probe 0 (0.05 0.05 0.005)
#       Probe             0
#        Time
           24   1.08094e-05
           40   1.08094e-05
           50   1.08094e-05
           60   1.08094e-05
           70   1.08094e-05
           80   1.08094e-05
           90   1.08094e-05
          100   1.08094e-05
          110   1.08094e-05
          120   1.08094e-05
          130   1.08094e-05
          140   1.08094e-05
          150   1.08094e-05
          160   1.08094e-05
          170   1.08094e-05
          180   1.08094e-05
          190   1.08094e-05
          200   1.08094e-05
          210   1.08094e-05
          220   1.08094e-05
          230   1.08094e-05
          240   1.08094e-05
          250   1.08094e-05
          260   1.08094e-05
          270   1.08094e-05
          280   1.08094e-05
          290   1.08094e-05
          300   1.08094e-05
          310   1.08094e-05
          320   1.08094e-05
          330   1.08094e-05
          340   1.08094e-05
          350   1.08094e-05
          360   1.08094e-05
          370   1.08094e-05
          380   1.08094e-05
          390   1.08094e-05
          400   1.08094e-05
          410   1.08094e-05
          420   1.08094e-05
          430   1.08094e-05
          440   1.08094e-05
          450   1.08094e-05
          460   1.08094e-05
          470   1.08094e-05
          480   1.08094e-05
          490   1.08094e-05
          500   1.08094e-05
          510   1.08094e-05
          520   1.08094e-05
          530   1.08094e-05
          540   1.08094e-05
          550   1.08094e-05
          560   1.08094e-05
          570   1.08094e-05
          580   1.08094e-05
          590   1.08094e-05
          600   1.08094e-05
          610   1.08094e-05
          620   1.08094e-05
          630   1.08094e-05
          640   1.08094e-05
          650   1.08094e-05
          660   1.08094e-05
          670   1.08094e-05
          680   1.08094e-05
          690   1.08094e-05
          700   1.08094e-05
          710   1.08094e-05
          720   1.08094e-05
          730   1.08094e-05
          740   1.08094e-05
          750   1.08094e-05
          760   1.08094e-05
          770   1.08094e-05
          780   1.08094e-05
          790   1.08094e-05
          800   1.08094e-05
          810   1.08094e-05
          820   1.08094e-05
          830   1.08094e-05
          840   1.08094e-05
          850   1.08094e-05
          860   1.08094e-05
          870   1.08094e-05
          880   1.08094e-05
          890   1.08094e-05
          900   1.08094e-05
          910   1.08094e-05
          920   1.08094e-05
          930   1.08094e-05
          940   1.08094e-05
          950   1.08094e-05
          960   1.08094e-05
          970   1.08094e-05
          980   1.08094e-05
          990   1.08094e-05
         1000   1.08094e-05
         1010   1.08094e-05
         1020   1.08094e-05
         1030   1.08094e-05
         1040   1.08094e-05
         1050   1.08094e-05
         1060   1.08094e-05
         1070   1.08094e-05
         1080   1.08094e-05
         1090   1.08094e-05
         1100   1.08094e-05
         1110   1.08094e-05
         1120   1.08094e-05
         1130   1.08094e-05
         1140   1.08094e-05
         1150   1.08094e-05
         1160   1.08094e-05
         1170   1.08094e-05
         1180   1.08094e-05
         1190   1.08094e-05
         1200   1.08094e-05
         1210   1.08094e-05
         1220   1.08094e-05
         1230   1.08094e-05
         1240   1.08094e-05
         1250   1.08094e-05
         1260   1.08094e-05
         1270   1.08094e-05
         1280   1.08094e-05
         1290   1.08094e-05
         1300   1.08094e-05
         1310   1.08094e-05
         1320   1.08094e-05
         1330   1.08094e-05
         1340   1.08094e-05
         1350   1.08094e-05
         1360   1.08094e-05
         1370   1.08094e-05
         1380   1.08094e-05
         1390   1.08094e-05
         1400   1.08094e-05
         1410   1.08094e-05
         1420   1.08094e-05
         1430   1.08094e-05
         1440   1.08094e-05
         1450   1.08094e-05
         1460   1.08094e-05
         1470   1.08094e-05
         1480   1.08094e-05
         1490   1.08094e-05
         1500   1.08094e-05
         1510   1.08094e-05
         1520   1.08094e-05
         1530   1.08094e-05
         1540   1.08094e-05
         1550   1.08094e-05
         1560   1.08094e-05
         1570   1.08094e-05
         1580   1.08094e-05
         1590   1.08094e-05
         1600   1.08094e-05
         1610   1.08094e-05
         1620   1.08094e-05
         1630   1.08094e-05
         1640   1.08094e-05
         1650   1.08094e-05
         1660   1.08094e-05
         1670   1.08094e-05
         1680   1.08094e-05
         1690   1.08094e-05
         1700   1.08094e-05
         1710   1.08094e-05
         1720   1.08094e-05
         1730   1.08094e-05
         1740   1.08094e-05
         1750   1.08094e-05
         1760   1.08094e-05
         1770   1.08094e-05
         1780   1.08094e-05
         1790   1.08094e-05
         1800   1.08094e-05
         1810   1.08094e-05
         1820   1.08094e-05
         1830   1.08094e-05
         1840   1.08094e-05
         1850   1.08094e-05
         1860   1.08094e-05
         1870   1.08094e-05
         1880   1.08094e-05
         1890   1.08094e-05
         1900   1.08094e-05
         1910   1.08094e-05
         1920   1.08094e-05
         1930   1.08094e-05
         1940   1.08094e-05
         1950   1.08094e-05
         1960   1.08094e-05
         1970   1.08094e-05
         1980   1.08094e-05
         1990   1.08094e-05
         2000   1.08094e-05
         2010   1.08094e-05
         2020   1.08094e-05
         2030   1.08094e-05
         2040   1.08094e-05
         2050   1.08094e-05
         2060   1.08094e-05
         2070   1.08094e-05
         2080   1.08094e-05
         2090   1.08094e-05
         2100   1.08094e-05
         2110   1.08094e-05
         2120   1.08094e-05
         2130   1.08094e-05
         2140   1.08094e-05
         2150   1.08094e-05
         2160   1.08094e-05
         2170   1.08094e-05
         2180   1.08094e-05
         2190   1.08094e-05
         2200   1.08094e-05
         2210   1.08094e-05
         2220   1.08094e-05
         2230   1.08094e-05
         2240   1.08094e-05
         2250   1.08094e-05
         2260   1.08094e-05
         2270   1.08094e-05
         2280   1.08094e-05
         2290   1.08094e-05
         2300   1.08094e-05
         2310   1.08094e-05
         2320   1.08094e-05
         2330   1.08094e-05
         2340   1.08094e-05
         2350   1.08094e-05
         2360   1.08094e-05
         2370   1.08094e-05
         2380   1.08094e-05
         2390   1.08094e-05
         2400   1.08094e-05
         2410   1.08094e-05
         2420   1.08094e-05
         2430   1.08094e-05
         2440   1.08094e-05
         2450   1.08094e-05
         2460   1.08094e-05
         2470   1.08094e-05
         2480   1.08094e-05
         2490   1.08094e-05
         2500   1.08094e-05
         2510   1.08094e-05
         2520   1.08094e-05
         2530   1.08094e-05
         2540   1.08094e-05
         2550   1.08094e-05
         2560   1.08094e-05
         2570   1.08094e-05
         2580   1.08094e-05
         2590   1.08094e-05
         2600   1.08094e-05
         2610   1.08094e-05
         2620   1.08094e-05
         2630   1.08094e-05
         2640   1.08094e-05
         2650   1.08094e-05
         2660   1.08094e-05
         2670   1.08094e-05
         2680   1.08094e-05
         2690   1.08094e-05
         2700   1.08094e-05
         2710   1.08094e-05
         2720   1.08094e-05
         2730   1.08094e-05
         2740   1.08094e-05
         2750   1.08094e-05
         2760   1.08094e-05
         2770   1.08094e-05
         2780   1.08094e-05
         2790   1.08094e-05
         2800   1.08094e-05
         2810   1.08094e-05
         2820   1.08094e-05
         2830   1.08094e-05
         2840   1.08094e-05
         2850   1.08094e-05
         2860   1.08094e-05
         2870   1.08094e-05
         2880   1.08094e-05
         2890   1.08094e-05
         2900   1.08094e-05
         2910   1.08094e-05
         2920   1.08094e-05
         2930   1.08094e-05
         2940   1.08094e-05
         2950   1.08094e-05
         2960   1.08093e-05
         2970   1.08093e-05
         2980   1.08093e-05
         2990   1.08093e-05
         3000   1.08093e-05
         3010   1.08093e-05
         3020   1.08093e-05
         3030   1.08093e-05
         3040   1.08093e-05
         3050   1.08093e-05
         3060   1.08093e-05
         3070   1.08093e-05
         3080   1.08093e-05
         3090   1.08093e-05
         3100   1.08093e-05
         3110   1.08093e-05
         3120   1.08093e-05
         3130   1.08093e-05
         3140   1.08093e-05
         3150   1.08093e-05
         3160   1.08093e-05
         3170   1.08093e-05
         3180   1.08093e-05
         3190   1.08093e-05
         3200   1.08093e-05
         3210   1.08093e-05
         3220   1.08093e-05
         3230   1.08093e-05
         3240   1.08093e-05
         3250   1.08093e-05
         3260   1.08093e-05
         3270   1.08093e-05
         3280   1.08093e-05
         3290   1.08093e-05
         3300   1.08093e-05
         3310   1.08093e-05
         3320   1.08093e-05
         3330   1.08093e-05
         3340   1.08093e-05
         3350   1.08093e-05
         3360   1.08093e-05
         3370   1.08093e-05
         3380   1.08093e-05
         3390   1.08093e-05
         3400   1.08093e-05
         3410   1.08093e-05
         3420   1.08093e-05
         3430   1.08093e-05
         3440   1.08093e-05
         3450   1.08093e-05
         3460   1.08093e-05
         3470   1.08093e-05
         3480   1.08093e-05
         3490   1.08093e-05
         3500   1.08093e-05
         3510   1.08093e-05
         3520   1.08093e-05
         3530   1.08093e-05
         3540   1.08093e-05
         3550   1.08093e-05
         3560   1.08093e-05
         3570   1.08093e-05
         3580   1.08093e-05
         3590   1.08093e-05
         3600   1.08093e-05
         3610   1.08093e-05
         3620   1.08093e-05
         3630   1.08093e-05
         3640   1.08093e-05
         3650   1.08093e-05
         3660   1.08093e-05
         3670   1.08093e-05
         3680   1.08093e-05
         3690   1.08093e-05
         3700   1.08093e-05
         3710   1.08093e-05
         3720   1.08093e-05
         3730   1.08093e-05
         3740   1.08093e-05
         3750   1.08093e-05
         3760   1.08093e-05
         3770   1.08093e-05
         3780   1.08093e-05
         3790   1.08093e-05
         3800   1.08093e-05
         3810   1.08093e-05
         3820   1.08093e-05
         3830   1.08093e-05
         3840   1.08093e-05
         3850   1.08093e-05
         3860   1.08093e-05
         3870   1.08093e-05
         3880   1.08093e-05
         3890   1.08093e-05
         3900   1.08093e-05
         3910   1.08093e-05
         3920   1.08093e-05
         3930   1.08093e-05
         3940   1.08093e-05
         3950   1.08093e-05
         3960   1.08093e-05
         3970   1.08093e-05
         3980   1.08093e-05
         3990   1.08093e-05
         4000   1.08093e-05
         4010   1.08093e-05
         4020   1.08093e-05
         4030   1.08093e-05
         4040   1.08093e-05
         4050   1.08093e-05
         4060   1.08093e-05
         4070   1.08093e-05
         4080   1.08093e-05
         4090   1.08093e-05
         4100   1.08093e-05
         4110   1.08093e-05
         4120   1.08093e-05
         4130   1.08093e-05
         4140   1.08093e-05
         4150   1.08093e-05
         4160   1.08093e-05
         4170   1.08093e-05
         4180   1.08093e-05
         4190   1.08093e-05
         4200   1.08093e-05
         4210   1.08093e-05
         4220   1.08093e-05
         4230   1.08093e-05
         4240   1.08093e-05
         4250   1.08093e-05
         4260   1.08093e-05
         4270   1.08093e-05
         4280   1.08093e-05
         4290   1.08093e-05
         4300   1.08093e-05
         4310   1.08093e-05
         4320   1.08093e-05
         4330   1.08093e-05
         4340   1.08093e-05
         4350   1.08093e-05
         4360   1.08093e-05
         4370   1.08093e-05
         4380   1.08093e-05
         4390   1.08093e-05
         4400   1.08093e-05
         4410   1.08093e-05
         4420   1.08093e-05
         4430   1.08093e-05
         4440   1.08093e-05
         4450   1.08092e-05
         4460   1.08092e-05
         4470   1.08092e-05
         4480   1.08092e-05
         4490   1.08092e-05
         4500   1.08092e-05
         4510   1.08092e-05
         4520   1.08092e-05
         4530   1.08092e-05
         4540   1.08092e-05
         4550   1.08092e-05
         4560   1.08092e-05
         4570   1.08092e-05
         4580   1.08092e-05
         4590   1.08092e-05
         4600   1.08092e-05
         4610   1.08092e-05
         4620   1.08092e-05
         4630   1.08092e-05
         4640   1.08092e-05
         4650   1.08092e-05
         4660   1.08092e-05
         4670   1.08092e-05
         4680   1.08092e-05
         4690   1.08092e-05
         4700   1.08092e-05
         4710   1.08092e-05
         4720   1.08092e-05
         4730   1.08092e-05
         4740   1.08092e-05
         4750   1.08092e-05
         4760   1.08092e-05
         4770   1.08092e-05
         4780   1.08092e-05
         4790   1.08092e-05
         4800   1.08092e-05
         4810   1.08092e-05
         4820   1.08092e-05
         4830   1.08092e-05
         4840   1.08092e-05
         4850   1.08092e-05
         4860   1.08092e-05
         4870   1.08092e-05
         4880   1.08092e-05
         4890   1.08092e-05
         4900   1.08092e-05
         4910   1.08092e-05
         4920   1.08092e-05
         4930   1.08092e-05
         4940   1.08092e-05
         4950   1.08092e-05
         4960   1.08092e-05
         4970   1.08092e-05
         4980   1.08092e-05
         4990   1.08092e-05
         5000   1.08092e-05
         5010   1.08092e-05
         5020   1.08092e-05
         5030   1.08092e-05
         5040   1.08092e-05
         5050   1.08092e-05
         5060   1.08092e-05
         5070   1.08092e-05
         5080   1.08092e-05
         5090   1.08092e-05
         5100   1.08092e-05
         5110   1.08092e-05
         5120   1.08092e-05
         5130   1.08092e-05
         5140   1.08092e-05
         5150   1.08092e-05
         5160   1.08091e-05
         5170   1.08091e-05
         5180   1.08091e-05
         5190   1.08091e-05
         5200   1.08091e-05
         5210   1.08091e-05
         5220   1.08091e-05
         5230   1.08091e-05
         5240   1.08091e-05
         5250   1.08091e-05
         5260   1.08091e-05
         5270   1.08091e-05
         5280   1.08091e-05
         5290   1.08091e-05
         5300   1.08091e-05
         5310   1.08091e-05
         5320   1.08091e-05
         5330   1.08091e-05
         5340   1.08091e-05
         5350   1.08091e-05
         5360   1.08091e-05
         5370   1.08091e-05
         5380   1.08091e-05
         5390   1.08091e-05
         5400   1.08091e-05
         5410   1.08091e-05
         5420   1.08091e-05
         5430   1.08091e-05
         5440   1.08091e-05
         5450   1.08091e-05
         5460   1.08091e-05
         5470   1.08091e-05
         5480   1.08091e-05
         5490   1.08091e-05
         5500   1.08091e-05
         5510   1.08091e-05
         5520   1.08091e-05
         5530   1.08091e-05
         5540   1.08091e-05
         5550   1.08091e-05
         5560   1.08091e-05
         5570   1.08091e-05
         5580   1.08091e-05
         5590   1.08091e-05
         5600   1.08091e-05
         5610   1.08091e-05
         5620   1.08091e-05
         5630   1.08091e-05
         5640   1.08091e-05
         5650   1.08091e-05
         5660    1.0809e-05
         5670    1.0809e-05
         5680    1.0809e-05
         5690    1.0809e-05
         5700    1.0809e-05
         5710    1.0809e-05
         5720    1.0809e-05
         5730    1.0809e-05
         5740    1.0809e-05
         5750    1.0809e-05
         5760    1.0809e-05
         5770    1.0809e-05
         5780    1.0809e-05
         5790    1.0809e-05
         5800    1.0809e-05
         5810    1.0809e-05
         5820    1.0809e-05
         5830    1.0809e-05
         5840    1.0809e-05
         5850    1.0809e-05
         5860    1.0809e-05
         5870    1.0809e-05
         5880    1.0809e-05
         5890    1.0809e-05
         5900    1.0809e-05
         5910    1.0809e-05
         5920    1.0809e-05
         5930    1.0809e-05
         5940    1.0809e-05
         5950    1.0809e-05
         5960    1.0809e-05
         5970    1.0809e-05
         5980    1.0809e-05
         5990    1.0809e-05
         6000    1.0809e-05
         6010    1.0809e-05
         6020    1.0809e-05
         6030    1.0809e-05
         6040    1.0809e-05
         6050   1.08089e-05
         6060   1.08089e-05
         6070   1.08089e-05
         6080   1.08089e-05
         6090   1.08089e-05
         6100   1.08089e-05
         6110   1.08089e-05
         6120   1.08089e-05
         6130   1.08089e-05
         6140   1.08089e-05
         6150   1.08089e-05
         6160   1.08089e-05
         6170   1.08089e-05
         6180   1.08089e-05
         6190   1.08089e-05
         6200   1.08089e-05
         6210   1.08089e-05
         6220   1.08089e-05
         6230   1.08089e-05
         6240   1.08089e-05
         6250   1.08089e-05
         6260   1.08089e-05
         6270   1.08089e-05
         6280   1.08089e-05
         6290   1.08089e-05
         6300   1.08089e-05
         6310   1.08089e-05
         6320   1.08089e-05
         6330   1.08089e-05
         6340   1.08089e-05
         6350   1.08089e-05
         6360   1.08089e-05
         6370   1.08089e-05
         6380   1.08088e-05
         6390   1.08088e-05
         6400   1.08088e-05
         6410   1.08088e-05
         6420   1.08088e-05
         6430   1.08088e-05
         6440   1.08088e-05
         6450   1.08088e-05
         6460   1.08088e-05
         6470   1.08088e-05
         6480   1.08088e-05
         6490   1.08088e-05
         6500   1.08088e-05
         6510   1.08088e-05
         6520   1.08088e-05
         6530   1.08088e-05
         6540   1.08088e-05
         6550   1.08088e-05
         6560   1.08088e-05
         6570   1.08088e-05
         6580   1.08088e-05
         6590   1.08088e-05
         6600   1.08088e-05
         6610   1.08088e-05
         6620   1.08088e-05
         6630   1.08088e-05
         6640   1.08088e-05
         6650   1.08088e-05
         6660   1.08088e-05
         6670   1.08087e-05
         6680   1.08087e-05
         6690   1.08087e-05
         6700   1.08087e-05
         6710   1.08087e-05
         6720   1.08087e-05
         6730   1.08087e-05
         6740   1.08087e-05
         6750   1.08087e-05
         6760   1.08087e-05
         6770   1.08087e-05
         6780   1.08087e-05
         6790   1.08087e-05
         6800   1.08087e-05
         6810   1.08087e-05
         6820   1.08087e-05
         6830   1.08087e-05
         6840   1.08087e-05
         6850   1.08087e-05
         6860   1.08087e-05
         6870   1.08087e-05
         6880   1.08087e-05
         6890   1.08087e-05
         6900   1.08087e-05
         6910   1.08087e-05
         6920   1.08086e-05
         6930   1.08086e-05
         6940   1.08086e-05
         6950   1.08086e-05
         6960   1.08086e-05
         6970   1.08086e-05
         6980   1.08086e-05
         6990   1.08086e-05
         7000   1.08086e-05
         7010   1.08086e-05
         7020   1.08086e-05
         7030   1.08086e-05
         7040   1.08086e-05
         7050   1.08086e-05
         7060   1.08086e-05
         7070   1.08086e-05
         7080   1.08086e-05
         7090   1.08086e-05
         7100   1.08086e-05
         7110   1.08086e-05
         7120   1.08086e-05
         7130   1.08086e-05
         7140   1.08086e-05
         7150   1.08085e-05
         7160   1.08085e-05
         7170   1.08085e-05
         7180   1.08085e-05
         7190   1.08085e-05
         7200   1.08085e-05
         7210   1.08085e-05
         7220   1.08085e-05
         7230   1.08085e-05
         7240   1.08085e-05
         7250   1.08085e-05
         7260   1.08085e-05
         7270   1.08085e-05
         7280   1.08085e-05
         7290   1.08085e-05
         7300   1.08085e-05
         7310   1.08085e-05
         7320   1.08085e-05
         7330   1.08085e-05
         7340   1.08085e-05
         7350   1.08085e-05
         7360   1.08084e-05
         7370   1.08084e-05
         7380   1.08084e-05
         7390   1.08084e-05
         7400   1.08084e-05
         7410   1.08084e-05
         7420   1.08084e-05
         7430   1.08084e-05
         7440   1.08084e-05
         7450   1.08084e-05
         7460   1.08084e-05
         7470   1.08084e-05
         7480   1.08084e-05
         7490   1.08084e-05
         7500   1.08084e-05
         7510   1.08084e-05
         7520   1.08084e-05
         7530   1.08084e-05
         7540   1.08084e-05
         7550   1.08083e-05
         7560   1.08083e-05
         7570   1.08083e-05
         7580   1.08083e-05
         7590   1.08083e-05
         7600   1.08083e-05
         7610   1.08083e-05
         7620   1.08083e-05
         7630   1.08083e-05
         7640   1.08083e-05
         7650   1.08083e-05
         7660   1.08083e-05
         7670   1.08083e-05
         7680   1.08083e-05
         7690   1.08083e-05
         7700   1.08083e-05
         7710   1.08083e-05
         7720   1.08083e-05
         7730   1.08082e-05
         7740   1.08082e-05
         7750   1.08082e-05
         7760   1.08082e-05
         7770   1.08082e-05
         7780   1.08082e-05
         7790   1.08082e-05
         7800   1.08082e-05
         7810   1.08082e-05
         7820   1.08082e-05
         7830   1.08082e-05
         7840   1.08082e-05
         7850   1.08082e-05
         7860   1.08082e-05
         7870   1.08082e-05
         7880   1.08082e-05
         7890   1.08082e-05
         7900   1.08081e-05
         7910   1.08081e-05
         7920   1.08081e-05
         7930   1.08081e-05
         7940   1.08081e-05
         7950   1.08081e-05
         7960   1.08081e-05
         7970   1.08081e-05
         7980   1.08081e-05
         7990   1.08081e-05
         8000   1.08081e-05
         8010   1.08081e-05
         8020   1.08081e-05
         8030   1.08081e-05
         8040   1.08081e-05
         8050    1.0808e-05
         8060    1.0808e-05
         8070    1.0808e-05
         8080    1.0808e-05
         8090    1.0808e-05
         8100    1.0808e-05
         8110    1.0808e-05
         8120    1.0808e-05
         8130    1.0808e-05
         8140    1.0808e-05
         8150    1.0808e-05
         8160    1.0808e-05
         8170    1.0808e-05
         8180    1.0808e-05
         8190    1.0808e-05
         8200   1.08079e-05
         8210   1.08079e-05
         8220   1.08079e-05
         8230   1.08079e-05
         8240   1.08079e-05
         8250   1.08079e-05
         8260   1.08079e-05
         8270   1.08079e-05
         8280   1.08079e-05
         8290   1.08079e-05
         8300   1.08079e-05
         8310   1.08079e-05
         8320   1.08079e-05
         8330   1.08079e-05
         8340   1.08078e-05
         8350   1.08078e-05
         8360   1.08078e-05
         8370   1.08078e-05
         8380   1.08078e-05
         8390   1.08078e-05
         8400   1.08078e-05
         8410   1.08078e-05
         8420   1.08078e-05
         8430   1.08078e-05
         8440   1.08078e-05
         8450   1.08078e-05
         8460   1.08078e-05
         8470   1.08078e-05
         8480   1.08077e-05
         8490   1.08077e-05
         8500   1.08077e-05
         8510   1.08077e-05
         8520   1.08077e-05
         8530   1.08077e-05
         8540   1.08077e-05
         8550   1.08077e-05
         8560   1.08077e-05
         8570   1.08077e-05
         8580   1.08077e-05
         8590   1.08077e-05
         8600   1.08076e-05
         8610   1.08076e-05
         8620   1.08076e-05
         8630   1.08076e-05
         8640   1.08076e-05
         8650   1.08076e-05
         8660   1.08076e-05
         8670   1.08076e-05
         8680   1.08076e-05
         8690   1.08076e-05
         8700   1.08076e-05
         8710   1.08076e-05
         8720   1.08076e-05
         8730   1.08075e-05
         8740   1.08075e-05
         8750   1.08075e-05
         8760   1.08075e-05
         8770   1.08075e-05
         8780   1.08075e-05
         8790   1.08075e-05
         8800   1.08075e-05
         8810   1.08075e-05
         8820   1.08075e-05
         8830   1.08075e-05
         8840   1.08074e-05
         8850   1.08074e-05
         8860   1.08074e-05
         8870   1.08074e-05
         8880   1.08074e-05
         8890   1.08074e-05
         8900   1.08074e-05
         8910   1.08074e-05
         8920   1.08074e-05
         8930   1.08074e-05
         8940   1.08074e-05
         8950   1.08074e-05
         8960   1.08073e-05
         8970   1.08073e-05
         8980   1.08073e-05
         8990   1.08073e-05
         9000   1.08073e-05
         9010   1.08073e-05
         9020   1.08073e-05
         9030   1.08073e-05
         9040   1.08073e-05
         9050   1.08073e-05
         9060   1.08073e-05
         9070   1.08072e-05
         9080   1.08072e-05
         9090   1.08072e-05
         9100   1.08072e-05
         9110   1.08072e-05
         9120   1.08072e-05
         9130   1.08072e-05
         9140   1.08072e-05
         9150   1.08072e-05
         9160   1.08072e-05
         9170   1.08071e-05
         9180   1.08071e-05
         9190   1.08071e-05
         9200   1.08071e-05
         9210   1.08071e-05
         9220   1.08071e-05
         9230   1.08071e-05
         9240   1.08071e-05
         9250   1.08071e-05
         9260   1.08071e-05
         9270    1.0807e-05
         9280    1.0807e-05
         9290    1.0807e-05
         9300    1.0807e-05
         9310    1.0807e-05
         9320    1.0807e-05
         9330    1.0807e-05
         9340    1.0807e-05
         9350    1.0807e-05
         9360    1.0807e-05
         9370   1.08069e-05
         9380   1.08069e-05
         9390   1.08069e-05
         9400   1.08069e-05
         9410   1.08069e-05
         9420   1.08069e-05
         9430   1.08069e-05
         9440   1.08069e-05
         9450   1.08069e-05
         9460   1.08069e-05
         9470   1.08068e-05
         9480   1.08068e-05
         9490   1.08068e-05
         9500   1.08068e-05
         9510   1.08068e-05
         9520   1.08068e-05
         9530   1.08068e-05
         9540   1.08068e-05
         9550   1.08068e-05
         9560   1.08067e-05
         9570   1.08067e-05
         9580   1.08067e-05
         9590   1.08067e-05
         9600   1.08067e-05
         9610   1.08067e-05
         9620   1.08067e-05
         9630   1.08067e-05
         9640   1.08067e-05
         9650   1.08066e-05
         9660   1.08066e-05
         9670   1.08066e-05
         9680   1.08066e-05
         9690   1.08066e-05
         9700   1.08066e-05
         9710   1.08066e-05
         9720   1.08066e-05
         9730   1.08066e-05
         9740   1.08065e-05
         9750   1.08065e-05
         9760   1.08065e-05
         9770   1.08065e-05
         9780   1.08065e-05
         9790   1.08065e-05
         9800   1.08065e-05
         9810   1.08065e-05
         9820   1.08064e-05
         9830   1.08064e-05
         9840   1.08064e-05
         9850   1.08064e-05
         9860   1.08064e-05
         9870   1.08064e-05
         9880   1.08064e-05
         9890   1.08064e-05
         9900   1.08064e-05
         9910   1.08063e-05
         9920   1.08063e-05
         9930   1.08063e-05
         9940   1.08063e-05
         9950   1.08063e-05
         9960   1.08063e-05
         9970   1.08063e-05
         9980   1.08063e-05
         9990   1.08062e-05
        10000   1.08062e-05
        10010   1.08062e-05
        10020   1.08062e-05
        10030   1.08062e-05
        10040   1.08062e-05
        10050   1.08062e-05
        10060   1.08062e-05
        10070   1.08061e-05
        10080   1.08061e-05
        10090   1.08061e-05
        10100   1.08061e-05
        10110   1.08061e-05
        10120   1.08061e-05
        10130   1.08061e-05
        10140    1.0806e-05
        10150    1.0806e-05
        10160    1.0806e-05
        10170    1.0806e-05
        10180    1.0806e-05
        10190    1.0806e-05
        10200    1.0806e-05
        10210    1.0806e-05
        10220   1.08059e-05
        10230   1.08059e-05
        10240   1.08059e-05
        10250   1.08059e-05
        10260   1.08059e-05
        10270   1.08059e-05
        10280   1.08059e-05
        10290   1.08058e-05
        10300   1.08058e-05
        10310   1.08058e-05
        10320   1.08058e-05
        10330   1.08058e-05
        10340   1.08058e-05
        10350   1.08058e-05
        10360   1.08058e-05
        10370   1.08057e-05
        10380   1.08057e-05
        10390   1.08057e-05
        10400   1.08057e-05
        10410   1.08057e-05
        10420   1.08057e-05
        10430   1.08057e-05
        10440   1.08056e-05
        10450   1.08056e-05
        10460   1.08056e-05
        10470   1.08056e-05
        10480   1.08056e-05
        10490   1.08056e-05
        10500   1.08056e-05
        10510   1.08055e-05
        10520   1.08055e-05
        10530   1.08055e-05
        10540   1.08055e-05
        10550   1.08055e-05
        10560   1.08055e-05
        10570   1.08055e-05
        10580   1.08054e-05
        10590   1.08054e-05
        10600   1.08054e-05
        10610   1.08054e-05
        10620   1.08054e-05
        10630   1.08054e-05
        10640   1.08053e-05
        10650   1.08053e-05
        10660   1.08053e-05
        10670   1.08053e-05
        10680   1.08053e-05
        10690   1.08053e-05
        10700   1.08053e-05