# Probe 0 (0.05 0.05 0.005)
#       Probe             0
#        Time
           24             0
           40             0
           50   1.24708e-15
           60   5.40575e-15
           70   1.47012e-14
           80   3.18548e-14
           90   6.00898e-14
          100   1.03134e-13
          110   1.65219e-13
          120   2.51086e-13
          130    3.6598e-13
          140   5.15653e-13
          150   7.06367e-13
          160   9.44887e-13
          170   1.23849e-12
          180   1.59495e-12
          190   2.02257e-12
          200   2.53013e-12
          210   3.12694e-12
          220   3.82282e-12
          230   4.62807e-12
          240   5.55353e-12
          250   6.61053e-12
          260   7.81091e-12
          270   9.16702e-12
          280   1.06917e-11
          290   1.23983e-11
          300   1.43008e-11
          310   1.64134e-11
          320   1.87511e-11
          330   2.13293e-11
          340   2.41639e-11
          350   2.72712e-11
          360   3.06683e-11
          370   3.43724e-11
          380   3.84016e-11
          390   4.27743e-11
          400   4.75093e-11
          410   5.26263e-11
          420   5.81451e-11
          430   6.40862e-11
          440   7.04706e-11
          450   7.73197e-11
          460   8.46556e-11
          470   9.25008e-11
          480   1.00878e-10
          490   1.09811e-10
          500   1.19324e-10
          510   1.29441e-10
          520   1.40188e-10
          530   1.51589e-10
          540   1.63672e-10
          550   1.76462e-10
          560   1.89986e-10
          570   2.04273e-10
          580   2.19349e-10
          590   2.35245e-10
          600   2.51988e-10
          610   2.69609e-10
          620   2.88137e-10
          630   3.07604e-10
          640    3.2804e-10
          650   3.49477e-10
          660   3.71947e-10
          670   3.95483e-10
          680   4.20117e-10
          690   4.45884e-10
          700   4.72818e-10
          710   5.00954e-10
          720   5.30325e-10
          730    5.6097e-10
          740   5.92922e-10
          750    6.2622e-10
          760     6.609e-10
          770      6.97e-10
          780   7.34559e-10
          790   7.73614e-10
          800   8.14206e-10
          810   8.56374e-10
          820   9.00158e-10
          830     9.456e-10
          840   9.92739e-10
          850   1.04162e-09
          860   1.09228e-09
          870   1.14477e-09
          880   1.19912e-09
          890   1.25539e-09
          900   1.31362e-09
          910   1.37384e-09
          920   1.43612e-09
          930   1.50048e-09
          940   1.56699e-09
          950   1.63568e-09
          960    1.7066e-09
          970   1.77981e-09
          980   1.85534e-09
          990   1.93325e-09
         1000   2.01359e-09
         1010   2.09641e-09
         1020   2.18176e-09
         1030   2.26968e-09
         1040   2.36024e-09
         1050   2.45347e-09
         1060   2.54945e-09
         1070   2.64821e-09
         1080   2.74981e-09
         1090    2.8543e-09
         1100   2.96175e-09
         1110    3.0722e-09
         1120   3.18571e-09
         1130   3.30233e-09
         1140   3.42213e-09
         1150   3.54516e-09
         1160   3.67147e-09
         1170   3.80113e-09
         1180   3.93419e-09
         1190   4.07072e-09
         1200   4.21077e-09
         1210    4.3544e-09
         1220   4.50167e-09
         1230   4.65265e-09
         1240   4.80739e-09
         1250   4.96596e-09
         1260   5.12842e-09
         1270   5.29483e-09
         1280   5.46526e-09
         1290   5.63977e-09
         1300   5.81842e-09
         1310   6.00129e-09
         1320   6.18843e-09
         1330   6.37991e-09
         1340    6.5758e-09
         1350   6.77617e-09
         1360   6.98108e-09
         1370   7.19061e-09
         1380   7.40481e-09
         1390   7.62377e-09
         1400   7.84754e-09
         1410    8.0762e-09
         1420   8.30983e-09
         1430   8.54848e-09
         1440   8.79224e-09
         1450   9.04118e-09
         1460   9.29536e-09
         1470   9.55486e-09
         1480   9.81976e-09
         1490   1.00901e-08
         1500    1.0366e-08
         1510   1.06476e-08
         1520   1.09348e-08
         1530   1.12278e-08
         1540   1.15266e-08
         1550   1.18314e-08
         1560   1.21422e-08
         1570   1.24591e-08
         1580   1.27821e-08
         1590   1.31113e-08
         1600   1.34469e-08
         1610   1.37889e-08
         1620   1.41373e-08
         1630   1.44924e-08
         1640    1.4854e-08
         1650   1.52224e-08
         1660   1.55976e-08
         1670   1.59797e-08
         1680   1.63688e-08
         1690   1.67649e-08
         1700   1.71682e-08
         1710   1.75787e-08
         1720   1.79965e-08
         1730   1.84218e-08
         1740   1.88545e-08
         1750   1.92948e-08
         1760   1.97428e-08
         1770   2.01985e-08
         1780    2.0662e-08
         1790   2.11335e-08
         1800   2.16131e-08
         1810   2.21007e-08
         1820   2.25965e-08
         1830   2.31007e-08
         1840   2.36132e-08
         1850   2.41342e-08
         1860   2.46638e-08
         1870    2.5202e-08
         1880    2.5749e-08
         1890   2.63049e-08
         1900   2.68697e-08
         1910   2.74436e-08
         1920   2.80266e-08
         1930   2.86188e-08
         1940   2.92204e-08
         1950   2.98314e-08
         1960   3.04519e-08
         1970   3.10821e-08
         1980    3.1722e-08
         1990   3.23717e-08
         2000   3.30314e-08
         2010   3.37011e-08
         2020   3.43809e-08
         2030   3.50709e-08
         2040   3.57713e-08
         2050   3.64822e-08
         2060   3.72035e-08
         2070   3.79355e-08
         2080   3.86783e-08
         2090   3.94319e-08
         2100   4.01965e-08
         2110   4.09721e-08
         2120   4.17589e-08
         2130    4.2557e-08
         2140   4.33665e-08
         2150   4.41874e-08
         2160     4.502e-08
         2170   4.58643e-08
         2180   4.67204e-08
         2190   4.75884e-08
         2200   4.84684e-08
         2210   4.93606e-08
         2220   5.02651e-08
         2230   5.11819e-08
         2240   5.21113e-08
         2250   5.30532e-08
         2260   5.40078e-08
         2270   5.49753e-08
         2280   5.59557e-08
         2290   5.69491e-08
         2300   5.79557e-08
         2310   5.89756e-08
         2320   6.00089e-08
         2330   6.10557e-08
         2340   6.21162e-08
         2350   6.31904e-08
         2360   6.42785e-08
         2370   6.53806e-08
         2380   6.64968e-08
         2390   6.76272e-08
         2400   6.87719e-08
         2410   6.99312e-08
         2420    7.1105e-08
         2430   7.22936e-08
         2440   7.34969e-08
         2450   7.47153e-08
         2460   7.59487e-08
         2470   7.71974e-08
         2480   7.84613e-08
         2490   7.97407e-08
         2500   8.10358e-08
         2510   8.23465e-08
         2520    8.3673e-08
         2530   8.50155e-08
         2540   8.63741e-08
         2550    8.7749e-08
         2560   8.91401e-08
         2570   9.05478e-08
         2580    9.1972e-08
         2590    9.3413e-08
         2600   9.48709e-08
         2610   9.63457e-08
         2620   9.78377e-08
         2630   9.93469e-08
         2640   1.00874e-07
         2650   1.02418e-07
         2660    1.0398e-07
         2670   1.05559e-07
         2680   1.07157e-07
         2690   1.08772e-07
         2700   1.10406e-07
         2710   1.12058e-07
         2720   1.13729e-07
         2730   1.15418e-07
         2740   1.17126e-07
         2750   1.18853e-07
         2760   1.20599e-07
         2770   1.22364e-07
         2780   1.24148e-07
         2790   1.25952e-07
         2800   1.27775e-07
         2810   1.29618e-07
         2820   1.31481e-07
         2830   1.33364e-07
         2840   1.35268e-07
         2850   1.37191e-07
         2860   1.39135e-07
         2870   1.41099e-07
         2880   1.43084e-07
         2890    1.4509e-07
         2900   1.47118e-07
         2910   1.49166e-07
         2920   1.51235e-07
         2930   1.53326e-07
         2940   1.55439e-07
         2950   1.57573e-07
         2960    1.5973e-07
         2970   1.61908e-07
         2980   1.64108e-07
         2990   1.66331e-07
         3000   1.68577e-07
         3010   1.70845e-07
         3020   1.73136e-07
         3030   1.75449e-07
         3040   1.77786e-07
         3050   1.80146e-07
         3060    1.8253e-07
         3070   1.84937e-07
         3080   1.87368e-07
         3090   1.89823e-07
         3100   1.92302e-07
         3110   1.94805e-07
         3120   1.97332e-07
         3130   1.99884e-07
         3140   2.02461e-07
         3150   2.05062e-07
         3160   2.07689e-07
         3170    2.1034e-07
         3180   2.13017e-07
         3190   2.15719e-07
         3200   2.18447e-07
         3210   2.21201e-07
         3220   2.23981e-07
         3230   2.26786e-07
         3240   2.29619e-07
         3250   2.32477e-07
         3260   2.35362e-07
         3270   2.38274e-07
         3280   2.41213e-07
         3290   2.44179e-07
         3300   2.47172e-07
         3310   2.50193e-07
         3320   2.53241e-07
         3330   2.56317e-07
         3340   2.59421e-07
         3350   2.62553e-07
         3360   2.65713e-07
         3370   2.68902e-07
         3380   2.72119e-07
         3390   2.75366e-07
         3400   2.78641e-07
         3410   2.81945e-07
         3420   2.85279e-07
         3430   2.88642e-07
         3440   2.92034e-07
         3450   2.95457e-07
         3460   2.98909e-07
         3470   3.02392e-07
         3480   3.05905e-07
         3490   3.09448e-07
         3500   3.13023e-07
         3510   3.16628e-07
         3520   3.20264e-07
         3530   3.23931e-07
         3540    3.2763e-07
         3550    3.3136e-07
         3560   3.35122e-07
         3570   3.38916e-07
         3580   3.42743e-07
         3590   3.46601e-07
         3600   3.50492e-07
         3610   3.54416e-07
         3620   3.58372e-07
         3630   3.62362e-07
         3640   3.66384e-07
         3650   3.70441e-07
         3660    3.7453e-07
         3670   3.78654e-07
         3680   3.82811e-07
         3690   3.87003e-07
         3700   3.91229e-07
         3710   3.95489e-07
         3720   3.99784e-07
         3730   4.04114e-07
         3740   4.08479e-07
         3750    4.1288e-07
         3760   4.17315e-07
         3770   4.21787e-07
         3780   4.26294e-07
         3790   4.30837e-07
         3800   4.35417e-07
         3810   4.40033e-07
         3820   4.44686e-07
         3830   4.49375e-07
         3840   4.54101e-07
         3850   4.58865e-07
         3860   4.63666e-07
         3870   4.68504e-07
         3880    4.7338e-07
         3890   4.78294e-07
         3900   4.83247e-07
         3910   4.88238e-07
         3920   4.93267e-07
         3930   4.98335e-07
         3940   5.03442e-07
         3950   5.08588e-07
         3960   5.13773e-07
         3970   5.18998e-07
         3980   5.24263e-07
         3990   5.29568e-07
         4000   5.34913e-07
         4010   5.40298e-07
         4020   5.45724e-07
         4030    5.5119e-07
         4040   5.56698e-07
         4050   5.62247e-07
         4060   5.67837e-07
         4070   5.73468e-07
         4080   5.79142e-07
         4090   5.84857e-07
         4100   5.90615e-07
         4110   5.96415e-07
         4120   6.02258e-07
         4130   6.08143e-07
         4140   6.14071e-07
         4150   6.20043e-07
         4160   6.26058e-07
         4170   6.32117e-07
         4180    6.3822e-07
         4190   6.44367e-07
         4200   6.50558e-07
         4210   6.56793e-07
         4220   6.63074e-07
         4230   6.69399e-07
         4240   6.75769e-07
         4250   6.82185e-07
         4260   6.88646e-07
         4270   6.95153e-07
         4280   7.01706e-07
         4290   7.08306e-07
         4300   7.14952e-07
         4310   7.21644e-07
         4320   7.28383e-07
         4330    7.3517e-07
         4340   7.42003e-07
         4350   7.48884e-07
         4360   7.55813e-07
         4370    7.6279e-07
         4380   7.69815e-07
         4390   7.76889e-07
         4400   7.84011e-07
         4410   7.91182e-07
         4420   7.98402e-07
         4430   8.05672e-07
         4440   8.12991e-07
         4450   8.20359e-07
         4460   8.27778e-07
         4470   8.35247e-07
         4480   8.42766e-07
         4490   8.50336e-07
         4500   8.57957e-07
         4510   8.65629e-07
         4520   8.73352e-07
         4530   8.81127e-07
         4540   8.88953e-07
         4550   8.96832e-07
         4560   9.04763e-07
         4570   9.12746e-07
         4580   9.20782e-07
         4590   9.28871e-07
         4600   9.37014e-07
         4610   9.45209e-07
         4620   9.53458e-07
         4630   9.61762e-07
         4640   9.70119e-07
         4650    9.7853e-07
         4660   9.86997e-07
         4670   9.95518e-07
         4680   1.00409e-06
         4690   1.01272e-06
         4700   1.02141e-06
         4710   1.03015e-06
         4720   1.03895e-06
         4730   1.04781e-06
         4740   1.05672e-06
         4750   1.06569e-06
         4760   1.07471e-06
         4770   1.08379e-06
         4780   1.09293e-06
         4790   1.10213e-06
         4800   1.11139e-06
         4810    1.1207e-06
         4820   1.13007e-06
         4830    1.1395e-06
         4840   1.14899e-06
         4850   1.15854e-06
         4860   1.16815e-06
         4870   1.17782e-06
         4880   1.18754e-06
         4890   1.19733e-06
         4900   1.20718e-06
         4910   1.21709e-06
         4920   1.22706e-06
         4930   1.23709e-06
         4940   1.24718e-06
         4950   1.25733e-06
         4960   1.26755e-06
         4970   1.27783e-06
         4980   1.28816e-06
         4990   1.29857e-06
         5000   1.30903e-06
         5010   1.31956e-06
         5020   1.33015e-06
         5030   1.34081e-06
         5040   1.35153e-06
         5050   1.36231e-06
         5060   1.37316e-06
         5070   1.38407e-06
         5080   1.39505e-06
         5090   1.40609e-06
         5100    1.4172e-06
         5110   1.42837e-06
         5120   1.43961e-06
         5130   1.45092e-06
         5140   1.46229e-06
         5150   1.47373e-06
         5160   1.48524e-06
         5170   1.49681e-06
         5180   1.50845e-06
         5190   1.52016e-06
         5200   1.53194e-06
         5210   1.54378e-06
         5220   1.55569e-06
         5230   1.56768e-06
         5240   1.57973e-06
         5250   1.59185e-06
         5260   1.60404e-06
         5270    1.6163e-06
         5280   1.62863e-06
         5290   1.64103e-06
         5300    1.6535e-06
         5310   1.66604e-06
         5320   1.67866e-06
         5330   1.69134e-06
         5340    1.7041e-06
         5350   1.71693e-06
         5360   1.72983e-06
         5370    1.7428e-06
         5380   1.75585e-06
         5390   1.76897e-06
         5400   1.78216e-06
         5410   1.79543e-06
         5420   1.80877e-06
         5430   1.82218e-06
         5440   1.83567e-06
         5450   1.84924e-06
         5460   1.86287e-06
         5470   1.87659e-06
         5480   1.89038e-06
         5490   1.90424e-06
         5500   1.91819e-06
         5510    1.9322e-06
         5520    1.9463e-06
         5530   1.96047e-06
         5540   1.97472e-06
         5550   1.98905e-06
         5560   2.00345e-06
         5570   2.01793e-06
         5580    2.0325e-06
         5590   2.04714e-06
         5600   2.06185e-06
         5610   2.07665e-06
         5620   2.09153e-06
         5630   2.10649e-06
         5640   2.12152e-06
         5650   2.13664e-06
         5660   2.15184e-06
         5670   2.16712e-06
         5680   2.18248e-06
         5690   2.19792e-06
         5700   2.21344e-06
         5710   2.22905e-06
         5720   2.24474e-06
         5730   2.26051e-06
         5740   2.27636e-06
         5750    2.2923e-06
         5760   2.30832e-06
         5770   2.32442e-06
         5780   2.34061e-06
         5790   2.35688e-06
         5800   2.37324e-06
         5810   2.38968e-06
         5820   2.40621e-06
         5830   2.42282e-06
         5840   2.43952e-06
         5850   2.45631e-06
         5860   2.47318e-06
         5870   2.49014e-06
         5880   2.50718e-06
         5890   2.52432e-06
         5900   2.54154e-06
         5910   2.55885e-06
         5920   2.57624e-06
         5930   2.59373e-06
         5940    2.6113e-06
         5950   2.62897e-06
         5960   2.64672e-06
         5970   2.66456e-06
         5980   2.68249e-06
         5990   2.70052e-06
         6000   2.71863e-06
         6010   2.73683e-06
         6020   2.75513e-06
         6030   2.77352e-06
         6040     2.792e-06
         6050   2.81057e-06
         6060   2.82923e-06
         6070   2.84799e-06
         6080   2.86684e-06
         6090   2.88578e-06
         6100   2.90482e-06
         6110   2.92395e-06
         6120   2.94317e-06
         6130   2.96249e-06
         6140   2.98191e-06
         6150   3.00142e-06
         6160   3.02103e-06
         6170   3.04073e-06
         6180   3.06052e-06
         6190   3.08042e-06
         6200   3.10041e-06
         6210    3.1205e-06
         6220   3.14068e-06
         6230   3.16097e-06
         6240   3.18135e-06
         6250   3.20183e-06
         6260   3.22241e-06
         6270   3.24308e-06
         6280   3.26386e-06
         6290   3.28474e-06
         6300   3.30572e-06
         6310   3.32679e-06
         6320   3.34797e-06
         6330   3.36925e-06
         6340   3.39063e-06
         6350   3.41211e-06
         6360   3.43369e-06
         6370   3.45538e-06
         6380   3.47717e-06
         6390   3.49906e-06
         6400   3.52105e-06
         6410   3.54315e-06
         6420   3.56535e-06
         6430   3.58765e-06
         6440   3.61006e-06
         6450   3.63258e-06
         6460    3.6552e-06
         6470   3.67792e-06
         6480   3.70076e-06
         6490   3.72369e-06
         6500   3.74674e-06
         6510   3.76989e-06
         6520   3.79315e-06
         6530   3.81651e-06
         6540   3.83998e-06
         6550   3.86356e-06
         6560   3.88725e-06
         6570   3.91105e-06
         6580   3.93496e-06
         6590   3.95898e-06
         6600    3.9831e-06
         6610   4.00734e-06
         6620   4.03168e-06
         6630   4.05614e-06
         6640   4.08071e-06
         6650   4.10539e-06
         6660   4.13018e-06
         6670   4.15509e-06
         6680    4.1801e-06
         6690   4.20523e-06
         6700   4.23048e-06
         6710   4.25583e-06
         6720    4.2813e-06
         6730   4.30688e-06
         6740   4.33258e-06
         6750    4.3584e-06
         6760   4.38432e-06
         6770   4.41037e-06
         6780   4.43653e-06
         6790    4.4628e-06
         6800   4.48919e-06
         6810    4.5157e-06
         6820   4.54233e-06
         6830   4.56907e-06
         6840   4.59594e-06
         6850   4.62292e-06
         6860   4.65001e-06
         6870   4.67723e-06
         6880   4.70457e-06
         6890   4.73202e-06
         6900    4.7596e-06
         6910    4.7873e-06
         6920   4.81512e-06
         6930   4.84305e-06
         6940   4.87111e-06
         6950    4.8993e-06
         6960    4.9276e-06
         6970   4.95602e-06
         6980   4.98457e-06
         6990   5.01325e-06
         7000   5.04204e-06
         7010   5.07096e-06
         7020       5.1e-06
         7030   5.12917e-06
         7040   5.15847e-06
         7050   5.18788e-06
         7060   5.21743e-06
         7070    5.2471e-06
         7080   5.27689e-06
         7090   5.30682e-06
         7100   5.33687e-06
         7110   5.36704e-06
         7120   5.39735e-06
         7130   5.42778e-06
         7140   5.45835e-06
         7150   5.48904e-06
         7160   5.51986e-06
         7170   5.55081e-06
         7180   5.58188e-06
         7190   5.61309e-06
         7200   5.64443e-06
         7210   5.67591e-06
         7220   5.70751e-06
         7230   5.73924e-06
         7240   5.77111e-06
         7250   5.80311e-06
         7260   5.83524e-06
         7270   5.86751e-06
         7280   5.89991e-06
         7290   5.93244e-06
         7300   5.96511e-06
         7310   5.99791e-06
         7320   6.03085e-06
         7330   6.06392e-06
         7340   6.09713e-06
         7350   6.13047e-06
         7360   6.16395e-06
         7370   6.19757e-06
         7380   6.23132e-06
         7390   6.26522e-06
         7400   6.29925e-06
         7410   6.33342e-06
         7420   6.36773e-06
         7430   6.40217e-06
         7440   6.43676e-06
         7450   6.47149e-06
         7460   6.50635e-06
         7470   6.54136e-06
         7480   6.57651e-06
         7490    6.6118e-06
         7500   6.64723e-06
         7510   6.68281e-06
         7520   6.71852e-06
         7530   6.75438e-06
         7540   6.79039e-06
         7550   6.82653e-06
         7560   6.86282e-06
         7570   6.89926e-06
         7580   6.93584e-06
         7590   6.97256e-06
         7600   7.00943e-06
         7610   7.04645e-06
         7620   7.08361e-06
         7630   7.12092e-06
         7640   7.15838e-06
         7650   7.19599e-06
         7660   7.23374e-06
         7670   7.27164e-06
         7680   7.30969e-06
         7690   7.34789e-06
         7700   7.38624e-06
         7710   7.42474e-06
         7720   7.46338e-06
         7730   7.50218e-06
         7740   7.54113e-06
         7750   7.58024e-06
         7760   7.61949e-06
         7770   7.65889e-06
         7780   7.69845e-06
         7790   7.73816e-06
         7800   7.77803e-06
         7810   7.81805e-06
         7820   7.85822e-06
         7830   7.89855e-06
         7840   7.93903e-06
         7850   7.97967e-06
         7860   8.02046e-06
         7870   8.06141e-06
         7880   8.10252e-06
         7890   8.14378e-06
         7900    8.1852e-06
         7910   8.22678e-06
         7920   8.26851e-06
         7930   8.31041e-06
         7940   8.35246e-06
         7950   8.39467e-06
         7960   8.43705e-06
         7970   8.47958e-06
         7980   8.52227e-06
         7990   8.56513e-06
         8000   8.60814e-06
         8010   8.65132e-06
         8020   8.69466e-06
         8030   8.73816e-06
         8040   8.78183e-06
         8050   8.82566e-06
         8060   8.86965e-06
         8070   8.91381e-06
         8080   8.95813e-06
         8090   9.00262e-06
         8100   9.04727e-06
         8110   9.09209e-06
         8120   9.13707e-06
         8130   9.18222e-06
         8140   9.22754e-06
         8150   9.27302e-06
         8160   9.31868e-06
         8170    9.3645e-06
         8180   9.41049e-06
         8190   9.45665e-06
         8200   9.50298e-06
         8210   9.54948e-06
         8220   9.59615e-06
         8230   9.64299e-06
         8240      9.69e-06
         8250   9.73718e-06
         8260   9.78454e-06
         8270   9.83206e-06
         8280   9.87976e-06
         8290   9.92764e-06
         8300   9.97568e-06
         8310   1.00239e-05
         8320   1.00723e-05
         8330   1.01209e-05
         8340   1.01696e-05
         8350   1.02185e-05
         8360   1.02676e-05
         8370   1.03169e-05
         8380   1.03664e-05
         8390    1.0416e-05
         8400   1.04658e-05
         8410   1.05158e-05
         8420    1.0566e-05
         8430   1.06163e-05
         8440   1.06668e-05
         8450   1.07175e-05
         8460   1.07684e-05
         8470   1.08195e-05
         8480   1.08707e-05
         8490   1.09221e-05
         8500   1.09738e-05
         8510   1.10256e-05
         8520   1.10775e-05
         8530   1.11297e-05
         8540    1.1182e-05
         8550   1.12346e-05
         8560   1.12873e-05
         8570   1.13402e-05
         8580   1.13933e-05
         8590   1.14465e-05
         8600      1.15e-05
         8610   1.15536e-05
         8620   1.16075e-05
         8630   1.16615e-05
         8640   1.17157e-05
         8650   1.17701e-05
         8660   1.18247e-05
         8670   1.18794e-05
         8680   1.19344e-05
         8690   1.19895e-05
         8700   1.20449e-05
         8710   1.21004e-05
         8720   1.21562e-05
         8730   1.22121e-05
         8740   1.22682e-05
         8750   1.23245e-05
         8760    1.2381e-05
         8770   1.24377e-05
         8780   1.24946e-05
         8790   1.25517e-05
         8800   1.26089e-05
         8810   1.26664e-05
         8820   1.27241e-05
         8830   1.27819e-05
         8840     1.284e-05
         8850   1.28983e-05
         8860   1.29567e-05
         8870   1.30154e-05
         8880   1.30742e-05
         8890   1.31333e-05
         8900   1.31926e-05
         8910    1.3252e-05
         8920   1.33117e-05
         8930   1.33715e-05
         8940   1.34316e-05
         8950   1.34918e-05
         8960   1.35523e-05
         8970    1.3613e-05
         8980   1.36738e-05
         8990   1.37349e-05
         9000   1.37962e-05
         9010   1.38577e-05
         9020   1.39194e-05
         9030   1.39813e-05
         9040   1.40434e-05
         9050   1.41057e-05
         9060   1.41682e-05
         9070   1.42309e-05
         9080   1.42938e-05
         9090    1.4357e-05
         9100   1.44203e-05
         9110   1.44839e-05
         9120   1.45476e-05
         9130   1.46116e-05
         9140   1.46758e-05
         9150   1.47402e-05
         9160   1.48048e-05
         9170   1.48696e-05
         9180   1.49346e-05
         9190   1.49999e-05
         9200   1.50653e-05
         9210    1.5131e-05
         9220   1.51969e-05
         9230    1.5263e-05
         9240   1.53293e-05
         9250   1.53958e-05
         9260   1.54626e-05
         9270   1.55296e-05
         9280   1.55967e-05
         9290   1.56641e-05
         9300   1.57318e-05
         9310   1.57996e-05
         9320   1.58677e-05
         9330   1.59359e-05
         9340   1.60044e-05
         9350   1.60731e-05
         9360   1.61421e-05
         9370   1.62112e-05
         9380   1.62806e-05
         9390   1.63502e-05
         9400   1.64201e-05
         9410   1.64901e-05
         9420   1.65604e-05
         9430   1.66309e-05
         9440   1.67016e-05
         9450   1.67725e-05
         9460   1.68437e-05
         9470   1.69151e-05
         9480   1.69867e-05
         9490   1.70586e-05
         9500   1.71307e-05
         9510    1.7203e-05
         9520   1.72755e-05
         9530   1.73483e-05
         9540   1.74213e-05
         9550   1.74945e-05
         9560    1.7568e-05
         9570   1.76416e-05
         9580   1.77156e-05
         9590   1.77897e-05
         9600   1.78641e-05
         9610   1.79387e-05
         9620   1.80136e-05
         9630   1.80886e-05
         9640   1.81639e-05
         9650   1.82395e-05
         9660   1.83153e-05
         9670   1.83913e-05
         9680   1.84676e-05
         9690   1.85441e-05
         9700   1.86208e-05
         9710   1.86978e-05
         9720    1.8775e-05
         9730   1.88524e-05
         9740   1.89301e-05
         9750    1.9008e-05
         9760   1.90862e-05
         9770   1.91646e-05
         9780   1.92433e-05
         9790   1.93221e-05
         9800   1.94013e-05
         9810   1.94807e-05
         9820   1.95603e-05
         9830   1.96401e-05
         9840   1.97202e-05
         9850   1.98006e-05
         9860   1.98812e-05
         9870    1.9962e-05
         9880   2.00431e-05
         9890   2.01244e-05
         9900    2.0206e-05
         9910   2.02879e-05
         9920   2.03699e-05
         9930   2.04523e-05
         9940   2.05348e-05
         9950   2.06177e-05
         9960   2.07007e-05
         9970   2.07841e-05
         9980   2.08676e-05
         9990   2.09515e-05
        10000   2.10355e-05
        10010   2.11199e-05
        10020   2.12045e-05
        10030   2.12893e-05
        10040   2.13744e-05
        10050   2.14597e-05
        10060   2.15453e-05
        10070   2.16312e-05
        10080   2.17173e-05
        10090   2.18037e-05
        10100   2.18903e-05
        10110   2.19772e-05
        10120   2.20643e-05
        10130   2.21517e-05
        10140   2.22394e-05
        10150   2.23273e-05
        10160   2.24155e-05
        10170    2.2504e-05
        10180   2.25927e-05
        10190   2.26816e-05
        10200   2.27709e-05
        10210   2.28603e-05
        10220   2.29501e-05
        10230   2.30401e-05
        10240   2.31304e-05
        10250   2.32209e-05
        10260   2.33118e-05
        10270   2.34028e-05
        10280   2.34942e-05
        10290   2.35858e-05
        10300   2.36777e-05
        10310   2.37698e-05
        10320   2.38622e-05
        10330   2.39549e-05
        10340   2.40479e-05
        10350   2.41411e-05
        10360   2.42346e-05
        10370   2.43284e-05
        10380   2.44224e-05
        10390   2.45167e-05
        10400   2.46113e-05
        10410   2.47062e-05
        10420   2.48013e-05
        10430   2.48967e-05
        10440   2.49924e-05
        10450   2.50883e-05
        10460   2.51846e-05
        10470   2.52811e-05
        10480   2.53778e-05
        10490   2.54749e-05
        10500   2.55722e-05
        10510   2.56699e-05
        10520   2.57678e-05
        10530   2.58659e-05
        10540   2.59644e-05
        10550   2.60631e-05
        10560   2.61621e-05
        10570   2.62614e-05
        10580    2.6361e-05
        10590   2.64609e-05
        10600    2.6561e-05
        10610   2.66615e-05
        10620   2.67622e-05
        10630   2.68632e-05
        10640   2.69645e-05
        10650    2.7066e-05
        10660   2.71679e-05
        10670     2.727e-05
        10680   2.73725e-05
        10690   2.74752e-05
        10700   2.75782e-05