# Probe 0 (0.05 0.05 0.005)
#       Probe             0
#        Time
           24          0.04
           40          0.04
           50          0.04
           60          0.04
           70          0.04
           80          0.04
           90          0.04
          100          0.04
          110          0.04
          120          0.04
          130          0.04
          140          0.04
          150          0.04
          160          0.04
          170          0.04
          180          0.04
          190          0.04
          200          0.04
          210          0.04
          220          0.04
          230          0.04
          240          0.04
          250          0.04
          260          0.04
          270          0.04
          280          0.04
          290          0.04
          300          0.04
          310          0.04
          320          0.04
          330          0.04
          340          0.04
          350          0.04
          360          0.04
          370          0.04
          380          0.04
          390          0.04
          400          0.04
          410          0.04
          420          0.04
          430          0.04
          440          0.04
          450          0.04
          460          0.04
          470          0.04
          480          0.04
          490          0.04
          500          0.04
          510          0.04
          520          0.04
          530          0.04
          540          0.04
          550          0.04
          560          0.04
          570          0.04
          580          0.04
          590          0.04
          600          0.04
          610          0.04
          620          0.04
          630          0.04
          640          0.04
          650          0.04
          660          0.04
          670          0.04
          680          0.04
          690          0.04
          700          0.04
          710          0.04
          720          0.04
          730          0.04
          740          0.04
          750          0.04
          760          0.04
          770          0.04
          780          0.04
          790          0.04
          800          0.04
          810          0.04
          820          0.04
          830          0.04
          840          0.04
          850          0.04
          860          0.04
          870          0.04
          880          0.04
          890          0.04
          900          0.04
          910          0.04
          920          0.04
          930          0.04
          940          0.04
          950          0.04
          960          0.04
          970          0.04
          980          0.04
          990          0.04
         1000          0.04
         1010          0.04
         1020          0.04
         1030          0.04
         1040          0.04
         1050          0.04
         1060          0.04
         1070          0.04
         1080          0.04
         1090          0.04
         1100          0.04
         1110          0.04
         1120          0.04
         1130          0.04
         1140          0.04
         1150          0.04
         1160          0.04
         1170          0.04
         1180          0.04
         1190          0.04
         1200          0.04
         1210          0.04
         1220          0.04
         1230          0.04
         1240          0.04
         1250          0.04
         1260          0.04
         1270          0.04
         1280          0.04
         1290          0.04
         1300          0.04
         1310          0.04
         1320          0.04
         1330          0.04
         1340          0.04
         1350          0.04
         1360          0.04
         1370          0.04
         1380          0.04
         1390          0.04
         1400          0.04
         1410          0.04
         1420          0.04
         1430          0.04
         1440          0.04
         1450          0.04
         1460          0.04
         1470          0.04
         1480          0.04
         1490          0.04
         1500          0.04
         1510          0.04
         1520          0.04
         1530          0.04
         1540          0.04
         1550          0.04
         1560          0.04
         1570          0.04
         1580          0.04
         1590          0.04
         1600          0.04
         1610          0.04
         1620          0.04
         1630          0.04
         1640          0.04
         1650          0.04
         1660          0.04
         1670          0.04
         1680          0.04
         1690          0.04
         1700          0.04
         1710          0.04
         1720          0.04
         1730          0.04
         1740          0.04
         1750          0.04
         1760          0.04
         1770          0.04
         1780          0.04
         1790          0.04
         1800          0.04
         1810          0.04
         1820          0.04
         1830          0.04
         1840          0.04
         1850          0.04
         1860     0.0399999
         1870     0.0399999
         1880     0.0399999
         1890     0.0399999
         1900     0.0399999
         1910     0.0399999
         1920     0.0399999
         1930     0.0399999
         1940     0.0399999
         1950     0.0399999
         1960     0.0399999
         1970     0.0399999
         1980     0.0399999
         1990     0.0399999
         2000     0.0399999
         2010     0.0399999
         2020     0.0399999
         2030     0.0399999
         2040     0.0399999
         2050     0.0399999
         2060     0.0399999
         2070     0.0399999
         2080     0.0399999
         2090     0.0399999
         2100     0.0399999
         2110     0.0399999
         2120     0.0399999
         2130     0.0399999
         2140     0.0399999
         2150     0.0399999
         2160     0.0399999
         2170     0.0399999
         2180     0.0399999
         2190     0.0399999
         2200     0.0399999
         2210     0.0399999
         2220     0.0399999
         2230     0.0399999
         2240     0.0399999
         2250     0.0399999
         2260     0.0399999
         2270     0.0399999
         2280     0.0399999
         2290     0.0399999
         2300     0.0399999
         2310     0.0399999
         2320     0.0399999
         2330     0.0399999
         2340     0.0399999
         2350     0.0399999
         2360     0.0399999
         2370     0.0399999
         2380     0.0399999
         2390     0.0399999
         2400     0.0399999
         2410     0.0399999
         2420     0.0399999
         2430     0.0399999
         2440     0.0399999
         2450     0.0399999
         2460     0.0399999
         2470     0.0399999
         2480     0.0399999
         2490     0.0399999
         2500     0.0399999
         2510     0.0399999
         2520     0.0399999
         2530     0.0399999
         2540     0.0399999
         2550     0.0399999
         2560     0.0399999
         2570     0.0399999
         2580     0.0399999
         2590     0.0399999
         2600     0.0399999
         2610     0.0399999
         2620     0.0399999
         2630     0.0399999
         2640     0.0399999
         2650     0.0399999
         2660     0.0399999
         2670     0.0399999
         2680     0.0399999
         2690     0.0399999
         2700     0.0399999
         2710     0.0399999
         2720     0.0399999
         2730     0.0399999
         2740     0.0399999
         2750     0.0399999
         2760     0.0399999
         2770     0.0399999
         2780     0.0399999
         2790     0.0399998
         2800     0.0399998
         2810     0.0399998
         2820     0.0399998
         2830     0.0399998
         2840     0.0399998
         2850     0.0399998
         2860     0.0399998
         2870     0.0399998
         2880     0.0399998
         2890     0.0399998
         2900     0.0399998
         2910     0.0399998
         2920     0.0399998
         2930     0.0399998
         2940     0.0399998
         2950     0.0399998
         2960     0.0399998
         2970     0.0399998
         2980     0.0399998
         2990     0.0399998
         3000     0.0399998
         3010     0.0399998
         3020     0.0399998
         3030     0.0399998
         3040     0.0399998
         3050     0.0399998
         3060     0.0399998
         3070     0.0399998
         3080     0.0399998
         3090     0.0399998
         3100     0.0399998
         3110     0.0399998
         3120     0.0399998
         3130     0.0399998
         3140     0.0399998
         3150     0.0399998
         3160     0.0399998
         3170     0.0399998
         3180     0.0399998
         3190     0.0399998
         3200     0.0399998
         3210     0.0399998
         3220     0.0399998
         3230     0.0399997
         3240     0.0399997
         3250     0.0399997
         3260     0.0399997
         3270     0.0399997
         3280     0.0399997
         3290     0.0399997
         3300     0.0399997
         3310     0.0399997
         3320     0.0399997
         3330     0.0399997
         3340     0.0399997
         3350     0.0399997
         3360     0.0399997
         3370     0.0399997
         3380     0.0399997
         3390     0.0399997
         3400     0.0399997
         3410     0.0399997
         3420     0.0399997
         3430     0.0399997
         3440     0.0399997
         3450     0.0399997
         3460     0.0399997
         3470     0.0399997
         3480     0.0399997
         3490     0.0399997
         3500     0.0399997
         3510     0.0399997
         3520     0.0399997
         3530     0.0399997
         3540     0.0399996
         3550     0.0399996
         3560     0.0399996
         3570     0.0399996
         3580     0.0399996
         3590     0.0399996
         3600     0.0399996
         3610     0.0399996
         3620     0.0399996
         3630     0.0399996
         3640     0.0399996
         3650     0.0399996
         3660     0.0399996
         3670     0.0399996
         3680     0.0399996
         3690     0.0399996
         3700     0.0399996
         3710     0.0399996
         3720     0.0399996
         3730     0.0399996
         3740     0.0399996
         3750     0.0399996
         3760     0.0399996
         3770     0.0399996
         3780     0.0399995
         3790     0.0399995
         3800     0.0399995
         3810     0.0399995
         3820     0.0399995
         3830     0.0399995
         3840     0.0399995
         3850     0.0399995
         3860     0.0399995
         3870     0.0399995
         3880     0.0399995
         3890     0.0399995
         3900     0.0399995
         3910     0.0399995
         3920     0.0399995
         3930     0.0399995
         3940     0.0399995
         3950     0.0399995
         3960     0.0399995
         3970     0.0399995
         3980     0.0399995
         3990     0.0399994
         4000     0.0399994
         4010     0.0399994
         4020     0.0399994
         4030     0.0399994
         4040     0.0399994
         4050     0.0399994
         4060     0.0399994
         4070     0.0399994
         4080     0.0399994
         4090     0.0399994
         4100     0.0399994
         4110     0.0399994
         4120     0.0399994
         4130     0.0399994
         4140     0.0399994
         4150     0.0399994
         4160     0.0399993
         4170     0.0399993
         4180     0.0399993
         4190     0.0399993
         4200     0.0399993
         4210     0.0399993
         4220     0.0399993
         4230     0.0399993
         4240     0.0399993
         4250     0.0399993
         4260     0.0399993
         4270     0.0399993
         4280     0.0399993
         4290     0.0399993
         4300     0.0399993
         4310     0.0399993
         4320     0.0399992
         4330     0.0399992
         4340     0.0399992
         4350     0.0399992
         4360     0.0399992
         4370     0.0399992
         4380     0.0399992
         4390     0.0399992
         4400     0.0399992
         4410     0.0399992
         4420     0.0399992
         4430     0.0399992
         4440     0.0399992
         4450     0.0399992
         4460     0.0399991
         4470     0.0399991
         4480     0.0399991
         4490     0.0399991
         4500     0.0399991
         4510     0.0399991
         4520     0.0399991
         4530     0.0399991
         4540     0.0399991
         4550     0.0399991
         4560     0.0399991
         4570     0.0399991
         4580     0.0399991
         4590      0.039999
         4600      0.039999
         4610      0.039999
         4620      0.039999
         4630      0.039999
         4640      0.039999
         4650      0.039999
         4660      0.039999
         4670      0.039999
         4680      0.039999
         4690      0.039999
         4700      0.039999
         4710     0.0399989
         4720     0.0399989
         4730     0.0399989
         4740     0.0399989
         4750     0.0399989
         4760     0.0399989
         4770     0.0399989
         4780     0.0399989
         4790     0.0399989
         4800     0.0399989
         4810     0.0399989
         4820     0.0399988
         4830     0.0399988
         4840     0.0399988
         4850     0.0399988
         4860     0.0399988
         4870     0.0399988
         4880     0.0399988
         4890     0.0399988
         4900     0.0399988
         4910     0.0399988
         4920     0.0399987
         4930     0.0399987
         4940     0.0399987
         4950     0.0399987
         4960     0.0399987
         4970     0.0399987
         4980     0.0399987
         4990     0.0399987
         5000     0.0399987
         5010     0.0399987
         5020     0.0399986
         5030     0.0399986
         5040     0.0399986
         5050     0.0399986
         5060     0.0399986
         5070     0.0399986
         5080     0.0399986
         5090     0.0399986
         5100     0.0399986
         5110     0.0399985
         5120     0.0399985
         5130     0.0399985
         5140     0.0399985
         5150     0.0399985
         5160     0.0399985
         5170     0.0399985
         5180     0.0399985
         5190     0.0399985
         5200     0.0399984
         5210     0.0399984
         5220     0.0399984
         5230     0.0399984
         5240     0.0399984
         5250     0.0399984
         5260     0.0399984
         5270     0.0399984
         5280     0.0399983
         5290     0.0399983
         5300     0.0399983
         5310     0.0399983
         5320     0.0399983
         5330     0.0399983
         5340     0.0399983
         5350     0.0399983
         5360     0.0399982
         5370     0.0399982
         5380     0.0399982
         5390     0.0399982
         5400     0.0399982
         5410     0.0399982
         5420     0.0399982
         5430     0.0399982
         5440     0.0399981
         5450     0.0399981
         5460     0.0399981
         5470     0.0399981
         5480     0.0399981
         5490     0.0399981
         5500     0.0399981
         5510      0.039998
         5520      0.039998
         5530      0.039998
         5540      0.039998
         5550      0.039998
         5560      0.039998
         5570      0.039998
         5580     0.0399979
         5590     0.0399979
         5600     0.0399979
         5610     0.0399979
         5620     0.0399979
         5630     0.0399979
         5640     0.0399979
         5650     0.0399978
         5660     0.0399978
         5670     0.0399978
         5680     0.0399978
         5690     0.0399978
         5700     0.0399978
         5710     0.0399977
         5720     0.0399977
         5730     0.0399977
         5740     0.0399977
         5750     0.0399977
         5760     0.0399977
         5770     0.0399976
         5780     0.0399976
         5790     0.0399976
         5800     0.0399976
         5810     0.0399976
         5820     0.0399976
         5830     0.0399976
         5840     0.0399975
         5850     0.0399975
         5860     0.0399975
         5870     0.0399975
         5880     0.0399975
         5890     0.0399974
         5900     0.0399974
         5910     0.0399974
         5920     0.0399974
         5930     0.0399974
         5940     0.0399974
         5950     0.0399973
         5960     0.0399973
         5970     0.0399973
         5980     0.0399973
         5990     0.0399973
         6000     0.0399973
         6010     0.0399972
         6020     0.0399972
         6030     0.0399972
         6040     0.0399972
         6050     0.0399972
         6060     0.0399971
         6070     0.0399971
         6080     0.0399971
         6090     0.0399971
         6100     0.0399971
         6110     0.0399971
         6120      0.039997
         6130      0.039997
         6140      0.039997
         6150      0.039997
         6160      0.039997
         6170     0.0399969
         6180     0.0399969
         6190     0.0399969
         6200     0.0399969
         6210     0.0399969
         6220     0.0399968
         6230     0.0399968
         6240     0.0399968
         6250     0.0399968
         6260     0.0399968
         6270     0.0399967
         6280     0.0399967
         6290     0.0399967
         6300     0.0399967
         6310     0.0399966
         6320     0.0399966
         6330     0.0399966
         6340     0.0399966
         6350     0.0399966
         6360     0.0399965
         6370     0.0399965
         6380     0.0399965
         6390     0.0399965
         6400     0.0399965
         6410     0.0399964
         6420     0.0399964
         6430     0.0399964
         6440     0.0399964
         6450     0.0399963
         6460     0.0399963
         6470     0.0399963
         6480     0.0399963
         6490     0.0399963
         6500     0.0399962
         6510     0.0399962
         6520     0.0399962
         6530     0.0399962
         6540     0.0399961
         6550     0.0399961
         6560     0.0399961
         6570     0.0399961
         6580      0.039996
         6590      0.039996
         6600      0.039996
         6610      0.039996
         6620     0.0399959
         6630     0.0399959
         6640     0.0399959
         6650     0.0399959
         6660     0.0399958
         6670     0.0399958
         6680     0.0399958
         6690     0.0399958
         6700     0.0399957
         6710     0.0399957
         6720     0.0399957
         6730     0.0399957
         6740     0.0399956
         6750     0.0399956
         6760     0.0399956
         6770     0.0399956
         6780     0.0399955
         6790     0.0399955
         6800     0.0399955
         6810     0.0399955
         6820     0.0399954
         6830     0.0399954
         6840     0.0399954
         6850     0.0399954
         6860     0.0399953
         6870     0.0399953
         6880     0.0399953
         6890     0.0399952
         6900     0.0399952
         6910     0.0399952
         6920     0.0399952
         6930     0.0399951
         6940     0.0399951
         6950     0.0399951
         6960      0.039995
         6970      0.039995
         6980      0.039995
         6990      0.039995
         7000     0.0399949
         7010     0.0399949
         7020     0.0399949
         7030     0.0399948
         7040     0.0399948
         7050     0.0399948
         7060     0.0399948
         7070     0.0399947
         7080     0.0399947
         7090     0.0399947
         7100     0.0399946
         7110     0.0399946
         7120     0.0399946
         7130     0.0399945
         7140     0.0399945
         7150     0.0399945
         7160     0.0399945
         7170     0.0399944
         7180     0.0399944
         7190     0.0399944
         7200     0.0399943
         7210     0.0399943
         7220     0.0399943
         7230     0.0399942
         7240     0.0399942
         7250     0.0399942
         7260     0.0399941
         7270     0.0399941
         7280     0.0399941
         7290      0.039994
         7300      0.039994
         7310      0.039994
         7320     0.0399939
         7330     0.0399939
         7340     0.0399939
         7350     0.0399938
         7360     0.0399938
         7370     0.0399938
         7380     0.0399937
         7390     0.0399937
         7400     0.0399937
         7410     0.0399936
         7420     0.0399936
         7430     0.0399936
         7440     0.0399935
         7450     0.0399935
         7460     0.0399935
         7470     0.0399934
         7480     0.0399934
         7490     0.0399934
         7500     0.0399933
         7510     0.0399933
         7520     0.0399933
         7530     0.0399932
         7540     0.0399932
         7550     0.0399931
         7560     0.0399931
         7570     0.0399931
         7580      0.039993
         7590      0.039993
         7600      0.039993
         7610     0.0399929
         7620     0.0399929
         7630     0.0399929
         7640     0.0399928
         7650     0.0399928
         7660     0.0399927
         7670     0.0399927
         7680     0.0399927
         7690     0.0399926
         7700     0.0399926
         7710     0.0399925
         7720     0.0399925
         7730     0.0399925
         7740     0.0399924
         7750     0.0399924
         7760     0.0399924
         7770     0.0399923
         7780     0.0399923
         7790     0.0399922
         7800     0.0399922
         7810     0.0399922
         7820     0.0399921
         7830     0.0399921
         7840      0.039992
         7850      0.039992
         7860      0.039992
         7870     0.0399919
         7880     0.0399919
         7890     0.0399918
         7900     0.0399918
         7910     0.0399917
         7920     0.0399917
         7930     0.0399917
         7940     0.0399916
         7950     0.0399916
         7960     0.0399915
         7970     0.0399915
         7980     0.0399915
         7990     0.0399914
         8000     0.0399914
         8010     0.0399913
         8020     0.0399913
         8030     0.0399912
         8040     0.0399912
         8050     0.0399911
         8060     0.0399911
         8070     0.0399911
         8080      0.039991
         8090      0.039991
         8100     0.0399909
         8110     0.0399909
         8120     0.0399908
         8130     0.0399908
         8140     0.0399907
         8150     0.0399907
         8160     0.0399907
         8170     0.0399906
         8180     0.0399906
         8190     0.0399905
         8200     0.0399905
         8210     0.0399904
         8220     0.0399904
         8230     0.0399903
         8240     0.0399903
         8250     0.0399902
         8260     0.0399902
         8270     0.0399901
         8280     0.0399901
         8290       0.03999
         8300       0.03999
         8310       0.03999
         8320     0.0399899
         8330     0.0399899
         8340     0.0399898
         8350     0.0399898
         8360     0.0399897
         8370     0.0399897
         8380     0.0399896
         8390     0.0399896
         8400     0.0399895
         8410     0.0399895
         8420     0.0399894
         8430     0.0399894
         8440     0.0399893
         8450     0.0399893
         8460     0.0399892
         8470     0.0399892
         8480     0.0399891
         8490     0.0399891
         8500      0.039989
         8510     0.0399889
         8520     0.0399889
         8530     0.0399888
         8540     0.0399888
         8550     0.0399887
         8560     0.0399887
         8570     0.0399886
         8580     0.0399886
         8590     0.0399885
         8600     0.0399885
         8610     0.0399884
         8620     0.0399884
         8630     0.0399883
         8640     0.0399883
         8650     0.0399882
         8660     0.0399881
         8670     0.0399881
         8680      0.039988
         8690      0.039988
         8700     0.0399879
         8710     0.0399879
         8720     0.0399878
         8730     0.0399878
         8740     0.0399877
         8750     0.0399876
         8760     0.0399876
         8770     0.0399875
         8780     0.0399875
         8790     0.0399874
         8800     0.0399874
         8810     0.0399873
         8820     0.0399873
         8830     0.0399872
         8840     0.0399871
         8850     0.0399871
         8860      0.039987
         8870      0.039987
         8880     0.0399869
         8890     0.0399868
         8900     0.0399868
         8910     0.0399867
         8920     0.0399867
         8930     0.0399866
         8940     0.0399865
         8950     0.0399865
         8960     0.0399864
         8970     0.0399864
         8980     0.0399863
         8990     0.0399862
         9000     0.0399862
         9010     0.0399861
         9020     0.0399861
         9030      0.039986
         9040     0.0399859
         9050     0.0399859
         9060     0.0399858
         9070     0.0399857
         9080     0.0399857
         9090     0.0399856
         9100     0.0399856
         9110     0.0399855
         9120     0.0399854
         9130     0.0399854
         9140     0.0399853
         9150     0.0399852
         9160     0.0399852
         9170     0.0399851
         9180      0.039985
         9190      0.039985
         9200     0.0399849
         9210     0.0399848
         9220     0.0399848
         9230     0.0399847
         9240     0.0399846
         9250     0.0399846
         9260     0.0399845
         9270     0.0399844
         9280     0.0399844
         9290     0.0399843
         9300     0.0399842
         9310     0.0399842
         9320     0.0399841
         9330      0.039984
         9340      0.039984
         9350     0.0399839
         9360     0.0399838
         9370     0.0399838
         9380     0.0399837
         9390     0.0399836
         9400     0.0399836
         9410     0.0399835
         9420     0.0399834
         9430     0.0399833
         9440     0.0399833
         9450     0.0399832
         9460     0.0399831
         9470     0.0399831
         9480      0.039983
         9490     0.0399829
         9500     0.0399828
         9510     0.0399828
         9520     0.0399827
         9530     0.0399826
         9540     0.0399826
         9550     0.0399825
         9560     0.0399824
         9570     0.0399823
         9580     0.0399823
         9590     0.0399822
         9600     0.0399821
         9610      0.039982
         9620      0.039982
         9630     0.0399819
         9640     0.0399818
         9650     0.0399817
         9660     0.0399817
         9670     0.0399816
         9680     0.0399815
         9690     0.0399814
         9700     0.0399814
         9710     0.0399813
         9720     0.0399812
         9730     0.0399811
         9740      0.039981
         9750      0.039981
         9760     0.0399809
         9770     0.0399808
         9780     0.0399807
         9790     0.0399807
         9800     0.0399806
         9810     0.0399805
         9820     0.0399804
         9830     0.0399803
         9840     0.0399803
         9850     0.0399802
         9860     0.0399801
         9870       0.03998
         9880     0.0399799
         9890     0.0399798
         9900     0.0399798
         9910     0.0399797
         9920     0.0399796
         9930     0.0399795
         9940     0.0399794
         9950     0.0399794
         9960     0.0399793
         9970     0.0399792
         9980     0.0399791
         9990      0.039979
        10000     0.0399789
        10010     0.0399789
        10020     0.0399788
        10030     0.0399787
        10040     0.0399786
        10050     0.0399785
        10060     0.0399784
        10070     0.0399783
        10080     0.0399783
        10090     0.0399782
        10100     0.0399781
        10110      0.039978
        10120     0.0399779
        10130     0.0399778
        10140     0.0399777
        10150     0.0399776
        10160     0.0399776
        10170     0.0399775
        10180     0.0399774
        10190     0.0399773
        10200     0.0399772
        10210     0.0399771
        10220      0.039977
        10230     0.0399769
        10240     0.0399768
        10250     0.0399768
        10260     0.0399767
        10270     0.0399766
        10280     0.0399765
        10290     0.0399764
        10300     0.0399763
        10310     0.0399762
        10320     0.0399761
        10330      0.039976
        10340     0.0399759
        10350     0.0399758
        10360     0.0399757
        10370     0.0399756
        10380     0.0399756
        10390     0.0399755
        10400     0.0399754
        10410     0.0399753
        10420     0.0399752
        10430     0.0399751
        10440      0.039975
        10450     0.0399749
        10460     0.0399748
        10470     0.0399747
        10480     0.0399746
        10490     0.0399745
        10500     0.0399744
        10510     0.0399743
        10520     0.0399742
        10530     0.0399741
        10540      0.039974
        10550     0.0399739
        10560     0.0399738
        10570     0.0399737
        10580     0.0399736
        10590     0.0399735
        10600     0.0399734
        10610     0.0399733
        10620     0.0399732
        10630     0.0399731
        10640      0.039973
        10650     0.0399729
        10660     0.0399728
        10670     0.0399727
        10680     0.0399726
        10690     0.0399725
        10700     0.0399724