# Probe 0 (0.05 0.05 0.005)
#       Probe             0
#        Time
           24   2.49204e+09
           40   2.49204e+09
           50   2.49204e+09
           60   2.49204e+09
           70   2.49204e+09
           80   2.49204e+09
           90   2.49204e+09
          100   2.49204e+09
          110   2.49204e+09
          120   2.49204e+09
          130   2.49204e+09
          140   2.49204e+09
          150   2.49204e+09
          160   2.49204e+09
          170   2.49204e+09
          180   2.49204e+09
          190   2.49204e+09
          200   2.49204e+09
          210   2.49204e+09
          220   2.49204e+09
          230   2.49204e+09
          240   2.49204e+09
          250   2.49204e+09
          260   2.49204e+09
          270   2.49204e+09
          280   2.49204e+09
          290   2.49204e+09
          300   2.49204e+09
          310   2.49204e+09
          320   2.49204e+09
          330   2.49204e+09
          340   2.49204e+09
          350   2.49204e+09
          360   2.49204e+09
          370   2.49204e+09
          380   2.49204e+09
          390   2.49204e+09
          400   2.49204e+09
          410   2.49204e+09
          420   2.49204e+09
          430   2.49204e+09
          440   2.49204e+09
          450   2.49204e+09
          460   2.49204e+09
          470   2.49204e+09
          480   2.49204e+09
          490   2.49204e+09
          500   2.49204e+09
          510   2.49204e+09
          520   2.49204e+09
          530   2.49204e+09
          540   2.49204e+09
          550   2.49204e+09
          560   2.49204e+09
          570   2.49204e+09
          580   2.49204e+09
          590   2.49204e+09
          600   2.49204e+09
          610   2.49204e+09
          620   2.49204e+09
          630   2.49204e+09
          640   2.49204e+09
          650   2.49204e+09
          660   2.49204e+09
          670   2.49204e+09
          680   2.49204e+09
          690   2.49204e+09
          700   2.49204e+09
          710   2.49204e+09
          720   2.49204e+09
          730   2.49204e+09
          740   2.49204e+09
          750   2.49204e+09
          760   2.49204e+09
          770   2.49204e+09
          780   2.49204e+09
          790   2.49204e+09
          800   2.49204e+09
          810   2.49204e+09
          820   2.49204e+09
          830   2.49204e+09
          840   2.49204e+09
          850   2.49204e+09
          860   2.49204e+09
          870   2.49204e+09
          880   2.49204e+09
          890   2.49204e+09
          900   2.49204e+09
          910   2.49204e+09
          920   2.49204e+09
          930   2.49204e+09
          940   2.49204e+09
          950   2.49204e+09
          960   2.49204e+09
          970   2.49204e+09
          980   2.49204e+09
          990   2.49204e+09
         1000   2.49204e+09
         1010   2.49204e+09
         1020   2.49204e+09
         1030   2.49204e+09
         1040   2.49204e+09
         1050   2.49204e+09
         1060   2.49204e+09
         1070   2.49204e+09
         1080   2.49204e+09
         1090   2.49204e+09
         1100   2.49204e+09
         1110   2.49204e+09
         1120   2.49204e+09
         1130   2.49204e+09
         1140   2.49204e+09
         1150   2.49204e+09
         1160   2.49204e+09
         1170   2.49204e+09
         1180   2.49204e+09
         1190   2.49204e+09
         1200   2.49204e+09
         1210   2.49204e+09
         1220   2.49204e+09
         1230   2.49204e+09
         1240   2.49204e+09
         1250   2.49204e+09
         1260   2.49204e+09
         1270   2.49204e+09
         1280   2.49204e+09
         1290   2.49204e+09
         1300   2.49204e+09
         1310   2.49204e+09
         1320   2.49204e+09
         1330   2.49204e+09
         1340   2.49204e+09
         1350   2.49204e+09
         1360   2.49204e+09
         1370   2.49204e+09
         1380   2.49204e+09
         1390   2.49204e+09
         1400   2.49204e+09
         1410   2.49204e+09
         1420   2.49204e+09
         1430   2.49204e+09
         1440   2.49204e+09
         1450   2.49204e+09
         1460   2.49204e+09
         1470   2.49204e+09
         1480   2.49204e+09
         1490   2.49204e+09
         1500   2.49204e+09
         1510   2.49204e+09
         1520   2.49204e+09
         1530   2.49204e+09
         1540   2.49204e+09
         1550   2.49204e+09
         1560   2.49204e+09
         1570   2.49204e+09
         1580   2.49204e+09
         1590   2.49204e+09
         1600   2.49204e+09
         1610   2.49204e+09
         1620   2.49204e+09
         1630   2.49204e+09
         1640   2.49204e+09
         1650   2.49204e+09
         1660   2.49204e+09
         1670   2.49204e+09
         1680   2.49204e+09
         1690   2.49204e+09
         1700   2.49204e+09
         1710   2.49204e+09
         1720   2.49204e+09
         1730   2.49204e+09
         1740   2.49204e+09
         1750   2.49204e+09
         1760   2.49204e+09
         1770   2.49204e+09
         1780   2.49204e+09
         1790   2.49204e+09
         1800   2.49204e+09
         1810   2.49204e+09
         1820   2.49204e+09
         1830   2.49204e+09
         1840   2.49204e+09
         1850   2.49204e+09
         1860   2.49204e+09
         1870   2.49204e+09
         1880   2.49204e+09
         1890   2.49204e+09
         1900   2.49204e+09
         1910   2.49204e+09
         1920   2.49204e+09
         1930   2.49204e+09
         1940   2.49204e+09
         1950   2.49204e+09
         1960   2.49204e+09
         1970   2.49204e+09
         1980   2.49204e+09
         1990   2.49204e+09
         2000   2.49204e+09
         2010   2.49204e+09
         2020   2.49204e+09
         2030   2.49204e+09
         2040   2.49203e+09
         2050   2.49203e+09
         2060   2.49203e+09
         2070   2.49203e+09
         2080   2.49203e+09
         2090   2.49203e+09
         2100   2.49203e+09
         2110   2.49203e+09
         2120   2.49203e+09
         2130   2.49203e+09
         2140   2.49203e+09
         2150   2.49203e+09
         2160   2.49203e+09
         2170   2.49203e+09
         2180   2.49203e+09
         2190   2.49203e+09
         2200   2.49203e+09
         2210   2.49203e+09
         2220   2.49203e+09
         2230   2.49203e+09
         2240   2.49203e+09
         2250   2.49203e+09
         2260   2.49203e+09
         2270   2.49203e+09
         2280   2.49203e+09
         2290   2.49203e+09
         2300   2.49203e+09
         2310   2.49203e+09
         2320   2.49203e+09
         2330   2.49203e+09
         2340   2.49203e+09
         2350   2.49203e+09
         2360   2.49203e+09
         2370   2.49203e+09
         2380   2.49203e+09
         2390   2.49203e+09
         2400   2.49203e+09
         2410   2.49203e+09
         2420   2.49203e+09
         2430   2.49203e+09
         2440   2.49203e+09
         2450   2.49203e+09
         2460   2.49203e+09
         2470   2.49203e+09
         2480   2.49203e+09
         2490   2.49203e+09
         2500   2.49203e+09
         2510   2.49203e+09
         2520   2.49203e+09
         2530   2.49203e+09
         2540   2.49203e+09
         2550   2.49203e+09
         2560   2.49203e+09
         2570   2.49203e+09
         2580   2.49203e+09
         2590   2.49203e+09
         2600   2.49203e+09
         2610   2.49203e+09
         2620   2.49203e+09
         2630   2.49203e+09
         2640   2.49203e+09
         2650   2.49203e+09
         2660   2.49203e+09
         2670   2.49203e+09
         2680   2.49203e+09
         2690   2.49203e+09
         2700   2.49203e+09
         2710   2.49203e+09
         2720   2.49203e+09
         2730   2.49203e+09
         2740   2.49203e+09
         2750   2.49203e+09
         2760   2.49203e+09
         2770   2.49203e+09
         2780   2.49203e+09
         2790   2.49203e+09
         2800   2.49203e+09
         2810   2.49203e+09
         2820   2.49203e+09
         2830   2.49203e+09
         2840   2.49203e+09
         2850   2.49203e+09
         2860   2.49203e+09
         2870   2.49203e+09
         2880   2.49203e+09
         2890   2.49203e+09
         2900   2.49203e+09
         2910   2.49203e+09
         2920   2.49203e+09
         2930   2.49203e+09
         2940   2.49203e+09
         2950   2.49203e+09
         2960   2.49203e+09
         2970   2.49203e+09
         2980   2.49203e+09
         2990   2.49203e+09
         3000   2.49203e+09
         3010   2.49203e+09
         3020   2.49203e+09
         3030   2.49203e+09
         3040   2.49203e+09
         3050   2.49203e+09
         3060   2.49203e+09
         3070   2.49203e+09
         3080   2.49203e+09
         3090   2.49203e+09
         3100   2.49203e+09
         3110   2.49203e+09
         3120   2.49203e+09
         3130   2.49203e+09
         3140   2.49203e+09
         3150   2.49203e+09
         3160   2.49203e+09
         3170   2.49203e+09
         3180   2.49203e+09
         3190   2.49203e+09
         3200   2.49203e+09
         3210   2.49203e+09
         3220   2.49203e+09
         3230   2.49203e+09
         3240   2.49203e+09
         3250   2.49203e+09
         3260   2.49203e+09
         3270   2.49203e+09
         3280   2.49203e+09
         3290   2.49203e+09
         3300   2.49203e+09
         3310   2.49203e+09
         3320   2.49203e+09
         3330   2.49203e+09
         3340   2.49203e+09
         3350   2.49203e+09
         3360   2.49203e+09
         3370   2.49203e+09
         3380   2.49203e+09
         3390   2.49203e+09
         3400   2.49203e+09
         3410   2.49203e+09
         3420   2.49203e+09
         3430   2.49203e+09
         3440   2.49203e+09
         3450   2.49203e+09
         3460   2.49203e+09
         3470   2.49203e+09
         3480   2.49203e+09
         3490   2.49203e+09
         3500   2.49203e+09
         3510   2.49203e+09
         3520   2.49203e+09
         3530   2.49203e+09
         3540   2.49203e+09
         3550   2.49203e+09
         3560   2.49203e+09
         3570   2.49203e+09
         3580   2.49203e+09
         3590   2.49203e+09
         3600   2.49203e+09
         3610   2.49203e+09
         3620   2.49203e+09
         3630   2.49203e+09
         3640   2.49203e+09
         3650   2.49203e+09
         3660   2.49203e+09
         3670   2.49203e+09
         3680   2.49203e+09
         3690   2.49203e+09
         3700   2.49203e+09
         3710   2.49203e+09
         3720   2.49203e+09
         3730   2.49203e+09
         3740   2.49203e+09
         3750   2.49203e+09
         3760   2.49203e+09
         3770   2.49203e+09
         3780   2.49203e+09
         3790   2.49203e+09
         3800   2.49203e+09
         3810   2.49203e+09
         3820   2.49203e+09
         3830   2.49203e+09
         3840   2.49203e+09
         3850   2.49203e+09
         3860   2.49203e+09
         3870   2.49203e+09
         3880   2.49203e+09
         3890   2.49203e+09
         3900   2.49203e+09
         3910   2.49203e+09
         3920   2.49203e+09
         3930   2.49203e+09
         3940   2.49203e+09
         3950   2.49203e+09
         3960   2.49203e+09
         3970   2.49203e+09
         3980   2.49203e+09
         3990   2.49203e+09
         4000   2.49203e+09
         4010   2.49203e+09
         4020   2.49203e+09
         4030   2.49203e+09
         4040   2.49203e+09
         4050   2.49203e+09
         4060   2.49203e+09
         4070   2.49203e+09
         4080   2.49203e+09
         4090   2.49203e+09
         4100   2.49203e+09
         4110   2.49203e+09
         4120   2.49203e+09
         4130   2.49203e+09
         4140   2.49203e+09
         4150   2.49203e+09
         4160   2.49203e+09
         4170   2.49203e+09
         4180   2.49203e+09
         4190   2.49203e+09
         4200   2.49203e+09
         4210   2.49203e+09
         4220   2.49203e+09
         4230   2.49203e+09
         4240   2.49203e+09
         4250   2.49203e+09
         4260   2.49203e+09
         4270   2.49203e+09
         4280   2.49203e+09
         4290   2.49203e+09
         4300   2.49203e+09
         4310   2.49203e+09
         4320   2.49203e+09
         4330   2.49203e+09
         4340   2.49203e+09
         4350   2.49203e+09
         4360   2.49203e+09
         4370   2.49203e+09
         4380   2.49203e+09
         4390   2.49203e+09
         4400   2.49203e+09
         4410   2.49203e+09
         4420   2.49203e+09
         4430   2.49202e+09
         4440   2.49202e+09
         4450   2.49202e+09
         4460   2.49202e+09
         4470   2.49202e+09
         4480   2.49202e+09
         4490   2.49202e+09
         4500   2.49202e+09
         4510   2.49202e+09
         4520   2.49202e+09
         4530   2.49202e+09
         4540   2.49202e+09
         4550   2.49202e+09
         4560   2.49202e+09
         4570   2.49202e+09
         4580   2.49202e+09
         4590   2.49202e+09
         4600   2.49202e+09
         4610   2.49202e+09
         4620   2.49202e+09
         4630   2.49202e+09
         4640   2.49202e+09
         4650   2.49202e+09
         4660   2.49202e+09
         4670   2.49202e+09
         4680   2.49202e+09
         4690   2.49202e+09
         4700   2.49202e+09
         4710   2.49202e+09
         4720   2.49202e+09
         4730   2.49202e+09
         4740   2.49202e+09
         4750   2.49202e+09
         4760   2.49202e+09
         4770   2.49202e+09
         4780   2.49202e+09
         4790   2.49202e+09
         4800   2.49202e+09
         4810   2.49202e+09
         4820   2.49202e+09
         4830   2.49202e+09
         4840   2.49202e+09
         4850   2.49202e+09
         4860   2.49202e+09
         4870   2.49202e+09
         4880   2.49202e+09
         4890   2.49202e+09
         4900   2.49202e+09
         4910   2.49202e+09
         4920   2.49202e+09
         4930   2.49202e+09
         4940   2.49202e+09
         4950   2.49202e+09
         4960   2.49202e+09
         4970   2.49202e+09
         4980   2.49202e+09
         4990   2.49202e+09
         5000   2.49202e+09
         5010   2.49202e+09
         5020   2.49202e+09
         5030   2.49202e+09
         5040   2.49202e+09
         5050   2.49202e+09
         5060   2.49202e+09
         5070   2.49202e+09
         5080   2.49202e+09
         5090   2.49202e+09
         5100   2.49202e+09
         5110   2.49202e+09
         5120   2.49202e+09
         5130   2.49202e+09
         5140   2.49202e+09
         5150   2.49202e+09
         5160   2.49202e+09
         5170   2.49202e+09
         5180   2.49202e+09
         5190   2.49202e+09
         5200   2.49202e+09
         5210   2.49202e+09
         5220   2.49202e+09
         5230   2.49202e+09
         5240   2.49201e+09
         5250   2.49201e+09
         5260   2.49201e+09
         5270   2.49201e+09
         5280   2.49201e+09
         5290   2.49201e+09
         5300   2.49201e+09
         5310   2.49201e+09
         5320   2.49201e+09
         5330   2.49201e+09
         5340   2.49201e+09
         5350   2.49201e+09
         5360   2.49201e+09
         5370   2.49201e+09
         5380   2.49201e+09
         5390   2.49201e+09
         5400   2.49201e+09
         5410   2.49201e+09
         5420   2.49201e+09
         5430   2.49201e+09
         5440   2.49201e+09
         5450   2.49201e+09
         5460   2.49201e+09
         5470   2.49201e+09
         5480   2.49201e+09
         5490   2.49201e+09
         5500   2.49201e+09
         5510   2.49201e+09
         5520   2.49201e+09
         5530   2.49201e+09
         5540   2.49201e+09
         5550   2.49201e+09
         5560   2.49201e+09
         5570   2.49201e+09
         5580   2.49201e+09
         5590   2.49201e+09
         5600   2.49201e+09
         5610   2.49201e+09
         5620   2.49201e+09
         5630   2.49201e+09
         5640   2.49201e+09
         5650   2.49201e+09
         5660   2.49201e+09
         5670   2.49201e+09
         5680   2.49201e+09
         5690   2.49201e+09
         5700   2.49201e+09
         5710   2.49201e+09
         5720   2.49201e+09
         5730   2.49201e+09
         5740   2.49201e+09
         5750   2.49201e+09
         5760   2.49201e+09
         5770   2.49201e+09
         5780   2.49201e+09
         5790     2.492e+09
         5800     2.492e+09
         5810     2.492e+09
         5820     2.492e+09
         5830     2.492e+09
         5840     2.492e+09
         5850     2.492e+09
         5860     2.492e+09
         5870     2.492e+09
         5880     2.492e+09
         5890     2.492e+09
         5900     2.492e+09
         5910     2.492e+09
         5920     2.492e+09
         5930     2.492e+09
         5940     2.492e+09
         5950     2.492e+09
         5960     2.492e+09
         5970     2.492e+09
         5980     2.492e+09
         5990     2.492e+09
         6000     2.492e+09
         6010     2.492e+09
         6020     2.492e+09
         6030     2.492e+09
         6040     2.492e+09
         6050     2.492e+09
         6060     2.492e+09
         6070     2.492e+09
         6080     2.492e+09
         6090     2.492e+09
         6100     2.492e+09
         6110     2.492e+09
         6120     2.492e+09
         6130     2.492e+09
         6140     2.492e+09
         6150     2.492e+09
         6160     2.492e+09
         6170     2.492e+09
         6180     2.492e+09
         6190     2.492e+09
         6200     2.492e+09
         6210   2.49199e+09
         6220   2.49199e+09
         6230   2.49199e+09
         6240   2.49199e+09
         6250   2.49199e+09
         6260   2.49199e+09
         6270   2.49199e+09
         6280   2.49199e+09
         6290   2.49199e+09
         6300   2.49199e+09
         6310   2.49199e+09
         6320   2.49199e+09
         6330   2.49199e+09
         6340   2.49199e+09
         6350   2.49199e+09
         6360   2.49199e+09
         6370   2.49199e+09
         6380   2.49199e+09
         6390   2.49199e+09
         6400   2.49199e+09
         6410   2.49199e+09
         6420   2.49199e+09
         6430   2.49199e+09
         6440   2.49199e+09
         6450   2.49199e+09
         6460   2.49199e+09
         6470   2.49199e+09
         6480   2.49199e+09
         6490   2.49199e+09
         6500   2.49199e+09
         6510   2.49199e+09
         6520   2.49199e+09
         6530   2.49199e+09
         6540   2.49199e+09
         6550   2.49199e+09
         6560   2.49198e+09
         6570   2.49198e+09
         6580   2.49198e+09
         6590   2.49198e+09
         6600   2.49198e+09
         6610   2.49198e+09
         6620   2.49198e+09
         6630   2.49198e+09
         6640   2.49198e+09
         6650   2.49198e+09
         6660   2.49198e+09
         6670   2.49198e+09
         6680   2.49198e+09
         6690   2.49198e+09
         6700   2.49198e+09
         6710   2.49198e+09
         6720   2.49198e+09
         6730   2.49198e+09
         6740   2.49198e+09
         6750   2.49198e+09
         6760   2.49198e+09
         6770   2.49198e+09
         6780   2.49198e+09
         6790   2.49198e+09
         6800   2.49198e+09
         6810   2.49198e+09
         6820   2.49198e+09
         6830   2.49198e+09
         6840   2.49198e+09
         6850   2.49198e+09
         6860   2.49198e+09
         6870   2.49197e+09
         6880   2.49197e+09
         6890   2.49197e+09
         6900   2.49197e+09
         6910   2.49197e+09
         6920   2.49197e+09
         6930   2.49197e+09
         6940   2.49197e+09
         6950   2.49197e+09
         6960   2.49197e+09
         6970   2.49197e+09
         6980   2.49197e+09
         6990   2.49197e+09
         7000   2.49197e+09
         7010   2.49197e+09
         7020   2.49197e+09
         7030   2.49197e+09
         7040   2.49197e+09
         7050   2.49197e+09
         7060   2.49197e+09
         7070   2.49197e+09
         7080   2.49197e+09
         7090   2.49197e+09
         7100   2.49197e+09
         7110   2.49197e+09
         7120   2.49197e+09
         7130   2.49197e+09
         7140   2.49196e+09
         7150   2.49196e+09
         7160   2.49196e+09
         7170   2.49196e+09
         7180   2.49196e+09
         7190   2.49196e+09
         7200   2.49196e+09
         7210   2.49196e+09
         7220   2.49196e+09
         7230   2.49196e+09
         7240   2.49196e+09
         7250   2.49196e+09
         7260   2.49196e+09
         7270   2.49196e+09
         7280   2.49196e+09
         7290   2.49196e+09
         7300   2.49196e+09
         7310   2.49196e+09
         7320   2.49196e+09
         7330   2.49196e+09
         7340   2.49196e+09
         7350   2.49196e+09
         7360   2.49196e+09
         7370   2.49196e+09
         7380   2.49195e+09
         7390   2.49195e+09
         7400   2.49195e+09
         7410   2.49195e+09
         7420   2.49195e+09
         7430   2.49195e+09
         7440   2.49195e+09
         7450   2.49195e+09
         7460   2.49195e+09
         7470   2.49195e+09
         7480   2.49195e+09
         7490   2.49195e+09
         7500   2.49195e+09
         7510   2.49195e+09
         7520   2.49195e+09
         7530   2.49195e+09
         7540   2.49195e+09
         7550   2.49195e+09
         7560   2.49195e+09
         7570   2.49195e+09
         7580   2.49195e+09
         7590   2.49194e+09
         7600   2.49194e+09
         7610   2.49194e+09
         7620   2.49194e+09
         7630   2.49194e+09
         7640   2.49194e+09
         7650   2.49194e+09
         7660   2.49194e+09
         7670   2.49194e+09
         7680   2.49194e+09
         7690   2.49194e+09
         7700   2.49194e+09
         7710   2.49194e+09
         7720   2.49194e+09
         7730   2.49194e+09
         7740   2.49194e+09
         7750   2.49194e+09
         7760   2.49194e+09
         7770   2.49194e+09
         7780   2.49194e+09
         7790   2.49194e+09
         7800   2.49193e+09
         7810   2.49193e+09
         7820   2.49193e+09
         7830   2.49193e+09
         7840   2.49193e+09
         7850   2.49193e+09
         7860   2.49193e+09
         7870   2.49193e+09
         7880   2.49193e+09
         7890   2.49193e+09
         7900   2.49193e+09
         7910   2.49193e+09
         7920   2.49193e+09
         7930   2.49193e+09
         7940   2.49193e+09
         7950   2.49193e+09
         7960   2.49193e+09
         7970   2.49193e+09
         7980   2.49192e+09
         7990   2.49192e+09
         8000   2.49192e+09
         8010   2.49192e+09
         8020   2.49192e+09
         8030   2.49192e+09
         8040   2.49192e+09
         8050   2.49192e+09
         8060   2.49192e+09
         8070   2.49192e+09
         8080   2.49192e+09
         8090   2.49192e+09
         8100   2.49192e+09
         8110   2.49192e+09
         8120   2.49192e+09
         8130   2.49192e+09
         8140   2.49192e+09
         8150   2.49192e+09
         8160   2.49191e+09
         8170   2.49191e+09
         8180   2.49191e+09
         8190   2.49191e+09
         8200   2.49191e+09
         8210   2.49191e+09
         8220   2.49191e+09
         8230   2.49191e+09
         8240   2.49191e+09
         8250   2.49191e+09
         8260   2.49191e+09
         8270   2.49191e+09
         8280   2.49191e+09
         8290   2.49191e+09
         8300   2.49191e+09
         8310   2.49191e+09
         8320    2.4919e+09
         8330    2.4919e+09
         8340    2.4919e+09
         8350    2.4919e+09
         8360    2.4919e+09
         8370    2.4919e+09
         8380    2.4919e+09
         8390    2.4919e+09
         8400    2.4919e+09
         8410    2.4919e+09
         8420    2.4919e+09
         8430    2.4919e+09
         8440    2.4919e+09
         8450    2.4919e+09
         8460    2.4919e+09
         8470    2.4919e+09
         8480   2.49189e+09
         8490   2.49189e+09
         8500   2.49189e+09
         8510   2.49189e+09
         8520   2.49189e+09
         8530   2.49189e+09
         8540   2.49189e+09
         8550   2.49189e+09
         8560   2.49189e+09
         8570   2.49189e+09
         8580   2.49189e+09
         8590   2.49189e+09
         8600   2.49189e+09
         8610   2.49189e+09
         8620   2.49188e+09
         8630   2.49188e+09
         8640   2.49188e+09
         8650   2.49188e+09
         8660   2.49188e+09
         8670   2.49188e+09
         8680   2.49188e+09
         8690   2.49188e+09
         8700   2.49188e+09
         8710   2.49188e+09
         8720   2.49188e+09
         8730   2.49188e+09
         8740   2.49188e+09
         8750   2.49188e+09
         8760   2.49187e+09
         8770   2.49187e+09
         8780   2.49187e+09
         8790   2.49187e+09
         8800   2.49187e+09
         8810   2.49187e+09
         8820   2.49187e+09
         8830   2.49187e+09
         8840   2.49187e+09
         8850   2.49187e+09
         8860   2.49187e+09
         8870   2.49187e+09
         8880   2.49187e+09
         8890   2.49187e+09
         8900   2.49186e+09
         8910   2.49186e+09
         8920   2.49186e+09
         8930   2.49186e+09
         8940   2.49186e+09
         8950   2.49186e+09
         8960   2.49186e+09
         8970   2.49186e+09
         8980   2.49186e+09
         8990   2.49186e+09
         9000   2.49186e+09
         9010   2.49186e+09
         9020   2.49185e+09
         9030   2.49185e+09
         9040   2.49185e+09
         9050   2.49185e+09
         9060   2.49185e+09
         9070   2.49185e+09
         9080   2.49185e+09
         9090   2.49185e+09
         9100   2.49185e+09
         9110   2.49185e+09
         9120   2.49185e+09
         9130   2.49185e+09
         9140   2.49185e+09
         9150   2.49184e+09
         9160   2.49184e+09
         9170   2.49184e+09
         9180   2.49184e+09
         9190   2.49184e+09
         9200   2.49184e+09
         9210   2.49184e+09
         9220   2.49184e+09
         9230   2.49184e+09
         9240   2.49184e+09
         9250   2.49184e+09
         9260   2.49183e+09
         9270   2.49183e+09
         9280   2.49183e+09
         9290   2.49183e+09
         9300   2.49183e+09
         9310   2.49183e+09
         9320   2.49183e+09
         9330   2.49183e+09
         9340   2.49183e+09
         9350   2.49183e+09
         9360   2.49183e+09
         9370   2.49183e+09
         9380   2.49182e+09
         9390   2.49182e+09
         9400   2.49182e+09
         9410   2.49182e+09
         9420   2.49182e+09
         9430   2.49182e+09
         9440   2.49182e+09
         9450   2.49182e+09
         9460   2.49182e+09
         9470   2.49182e+09
         9480   2.49182e+09
         9490   2.49181e+09
         9500   2.49181e+09
         9510   2.49181e+09
         9520   2.49181e+09
         9530   2.49181e+09
         9540   2.49181e+09
         9550   2.49181e+09
         9560   2.49181e+09
         9570   2.49181e+09
         9580   2.49181e+09
         9590    2.4918e+09
         9600    2.4918e+09
         9610    2.4918e+09
         9620    2.4918e+09
         9630    2.4918e+09
         9640    2.4918e+09
         9650    2.4918e+09
         9660    2.4918e+09
         9670    2.4918e+09
         9680    2.4918e+09
         9690   2.49179e+09
         9700   2.49179e+09
         9710   2.49179e+09
         9720   2.49179e+09
         9730   2.49179e+09
         9740   2.49179e+09
         9750   2.49179e+09
         9760   2.49179e+09
         9770   2.49179e+09
         9780   2.49179e+09
         9790   2.49178e+09
         9800   2.49178e+09
         9810   2.49178e+09
         9820   2.49178e+09
         9830   2.49178e+09
         9840   2.49178e+09
         9850   2.49178e+09
         9860   2.49178e+09
         9870   2.49178e+09
         9880   2.49178e+09
         9890   2.49177e+09
         9900   2.49177e+09
         9910   2.49177e+09
         9920   2.49177e+09
         9930   2.49177e+09
         9940   2.49177e+09
         9950   2.49177e+09
         9960   2.49177e+09
         9970   2.49177e+09
         9980   2.49176e+09
         9990   2.49176e+09
        10000   2.49176e+09
        10010   2.49176e+09
        10020   2.49176e+09
        10030   2.49176e+09
        10040   2.49176e+09
        10050   2.49176e+09
        10060   2.49176e+09
        10070   2.49175e+09
        10080   2.49175e+09
        10090   2.49175e+09
        10100   2.49175e+09
        10110   2.49175e+09
        10120   2.49175e+09
        10130   2.49175e+09
        10140   2.49175e+09
        10150   2.49175e+09
        10160   2.49174e+09
        10170   2.49174e+09
        10180   2.49174e+09
        10190   2.49174e+09
        10200   2.49174e+09
        10210   2.49174e+09
        10220   2.49174e+09
        10230   2.49174e+09
        10240   2.49174e+09
        10250   2.49173e+09
        10260   2.49173e+09
        10270   2.49173e+09
        10280   2.49173e+09
        10290   2.49173e+09
        10300   2.49173e+09
        10310   2.49173e+09
        10320   2.49173e+09
        10330   2.49172e+09
        10340   2.49172e+09
        10350   2.49172e+09
        10360   2.49172e+09
        10370   2.49172e+09
        10380   2.49172e+09
        10390   2.49172e+09
        10400   2.49172e+09
        10410   2.49171e+09
        10420   2.49171e+09
        10430   2.49171e+09
        10440   2.49171e+09
        10450   2.49171e+09
        10460   2.49171e+09
        10470   2.49171e+09
        10480   2.49171e+09
        10490    2.4917e+09
        10500    2.4917e+09
        10510    2.4917e+09
        10520    2.4917e+09
        10530    2.4917e+09
        10540    2.4917e+09
        10550    2.4917e+09
        10560    2.4917e+09
        10570   2.49169e+09
        10580   2.49169e+09
        10590   2.49169e+09
        10600   2.49169e+09
        10610   2.49169e+09
        10620   2.49169e+09
        10630   2.49169e+09
        10640   2.49169e+09
        10650   2.49168e+09
        10660   2.49168e+09
        10670   2.49168e+09
        10680   2.49168e+09
        10690   2.49168e+09
        10700   2.49168e+09