# Probe 0 (0.05 0.05 0.005)
#       Probe             0
#        Time
           24       21.1275
           40       21.1275
           50       21.1275
           60       21.1275
           70       21.1275
           80       21.1275
           90       21.1275
          100       21.1275
          110       21.1275
          120       21.1275
          130       21.1275
          140       21.1275
          150       21.1275
          160       21.1275
          170       21.1275
          180       21.1275
          190       21.1275
          200       21.1275
          210       21.1275
          220       21.1275
          230       21.1275
          240       21.1275
          250       21.1275
          260       21.1275
          270       21.1275
          280       21.1275
          290       21.1275
          300       21.1275
          310       21.1275
          320       21.1275
          330       21.1275
          340       21.1275
          350       21.1275
          360       21.1275
          370       21.1275
          380       21.1275
          390       21.1275
          400       21.1275
          410       21.1275
          420       21.1275
          430       21.1275
          440       21.1275
          450       21.1275
          460       21.1275
          470       21.1275
          480       21.1275
          490       21.1275
          500       21.1275
          510       21.1275
          520       21.1275
          530       21.1275
          540       21.1275
          550       21.1275
          560       21.1275
          570       21.1275
          580       21.1275
          590       21.1275
          600       21.1275
          610       21.1275
          620       21.1275
          630       21.1275
          640       21.1275
          650       21.1275
          660       21.1275
          670       21.1275
          680       21.1275
          690       21.1275
          700       21.1275
          710       21.1275
          720       21.1275
          730       21.1275
          740       21.1275
          750       21.1275
          760       21.1275
          770       21.1275
          780       21.1275
          790       21.1275
          800       21.1275
          810       21.1275
          820       21.1275
          830       21.1275
          840       21.1275
          850       21.1275
          860       21.1275
          870       21.1275
          880       21.1275
          890       21.1275
          900       21.1275
          910       21.1275
          920       21.1275
          930       21.1275
          940       21.1275
          950       21.1275
          960       21.1275
          970       21.1275
          980       21.1275
          990       21.1275
         1000       21.1275
         1010       21.1275
         1020       21.1275
         1030       21.1275
         1040       21.1275
         1050       21.1275
         1060       21.1275
         1070       21.1275
         1080       21.1275
         1090       21.1275
         1100       21.1275
         1110       21.1275
         1120       21.1275
         1130       21.1275
         1140       21.1275
         1150       21.1275
         1160       21.1274
         1170       21.1274
         1180       21.1274
         1190       21.1274
         1200       21.1274
         1210       21.1274
         1220       21.1274
         1230       21.1274
         1240       21.1274
         1250       21.1274
         1260       21.1274
         1270       21.1274
         1280       21.1274
         1290       21.1274
         1300       21.1274
         1310       21.1274
         1320       21.1274
         1330       21.1274
         1340       21.1274
         1350       21.1274
         1360       21.1274
         1370       21.1274
         1380       21.1274
         1390       21.1274
         1400       21.1274
         1410       21.1274
         1420       21.1274
         1430       21.1274
         1440       21.1274
         1450       21.1274
         1460       21.1274
         1470       21.1274
         1480       21.1274
         1490       21.1274
         1500       21.1274
         1510       21.1274
         1520       21.1274
         1530       21.1274
         1540       21.1274
         1550       21.1274
         1560       21.1274
         1570       21.1274
         1580       21.1274
         1590       21.1274
         1600       21.1274
         1610       21.1274
         1620       21.1274
         1630       21.1274
         1640       21.1274
         1650       21.1274
         1660       21.1274
         1670       21.1274
         1680       21.1274
         1690       21.1274
         1700       21.1274
         1710       21.1274
         1720       21.1274
         1730       21.1274
         1740       21.1274
         1750       21.1274
         1760       21.1274
         1770       21.1274
         1780       21.1274
         1790       21.1274
         1800       21.1274
         1810       21.1274
         1820       21.1274
         1830       21.1274
         1840       21.1274
         1850       21.1274
         1860       21.1274
         1870       21.1274
         1880       21.1274
         1890       21.1274
         1900       21.1274
         1910       21.1274
         1920       21.1274
         1930       21.1274
         1940       21.1274
         1950       21.1274
         1960       21.1274
         1970       21.1274
         1980       21.1274
         1990       21.1274
         2000       21.1274
         2010       21.1274
         2020       21.1274
         2030       21.1274
         2040       21.1274
         2050       21.1274
         2060       21.1274
         2070       21.1274
         2080       21.1274
         2090       21.1274
         2100       21.1274
         2110       21.1274
         2120       21.1274
         2130       21.1274
         2140       21.1274
         2150       21.1274
         2160       21.1274
         2170       21.1274
         2180       21.1274
         2190       21.1274
         2200       21.1274
         2210       21.1274
         2220       21.1274
         2230       21.1274
         2240       21.1274
         2250       21.1274
         2260       21.1274
         2270       21.1274
         2280       21.1274
         2290       21.1274
         2300       21.1274
         2310       21.1274
         2320       21.1274
         2330       21.1274
         2340       21.1274
         2350       21.1274
         2360       21.1274
         2370       21.1274
         2380       21.1274
         2390       21.1274
         2400       21.1274
         2410       21.1274
         2420       21.1274
         2430       21.1274
         2440       21.1274
         2450       21.1274
         2460       21.1274
         2470       21.1274
         2480       21.1274
         2490       21.1274
         2500       21.1274
         2510       21.1274
         2520       21.1274
         2530       21.1274
         2540       21.1274
         2550       21.1274
         2560       21.1274
         2570       21.1274
         2580       21.1274
         2590       21.1274
         2600       21.1274
         2610       21.1274
         2620       21.1274
         2630       21.1274
         2640       21.1274
         2650       21.1274
         2660       21.1274
         2670       21.1274
         2680       21.1274
         2690       21.1274
         2700       21.1274
         2710       21.1274
         2720       21.1274
         2730       21.1274
         2740       21.1274
         2750       21.1274
         2760       21.1274
         2770       21.1274
         2780       21.1274
         2790       21.1274
         2800       21.1274
         2810       21.1274
         2820       21.1274
         2830       21.1274
         2840       21.1274
         2850       21.1274
         2860       21.1274
         2870       21.1274
         2880       21.1274
         2890       21.1274
         2900       21.1274
         2910       21.1274
         2920       21.1274
         2930       21.1274
         2940       21.1274
         2950       21.1274
         2960       21.1274
         2970       21.1274
         2980       21.1274
         2990       21.1274
         3000       21.1274
         3010       21.1274
         3020       21.1274
         3030       21.1274
         3040       21.1274
         3050       21.1274
         3060       21.1274
         3070       21.1274
         3080       21.1274
         3090       21.1274
         3100       21.1274
         3110       21.1274
         3120       21.1274
         3130       21.1274
         3140       21.1274
         3150       21.1274
         3160       21.1274
         3170       21.1274
         3180       21.1274
         3190       21.1274
         3200       21.1274
         3210       21.1274
         3220       21.1274
         3230       21.1274
         3240       21.1274
         3250       21.1274
         3260       21.1274
         3270       21.1274
         3280       21.1274
         3290       21.1274
         3300       21.1274
         3310       21.1274
         3320       21.1274
         3330       21.1274
         3340       21.1274
         3350       21.1274
         3360       21.1273
         3370       21.1273
         3380       21.1273
         3390       21.1273
         3400       21.1273
         3410       21.1273
         3420       21.1273
         3430       21.1273
         3440       21.1273
         3450       21.1273
         3460       21.1273
         3470       21.1273
         3480       21.1273
         3490       21.1273
         3500       21.1273
         3510       21.1273
         3520       21.1273
         3530       21.1273
         3540       21.1273
         3550       21.1273
         3560       21.1273
         3570       21.1273
         3580       21.1273
         3590       21.1273
         3600       21.1273
         3610       21.1273
         3620       21.1273
         3630       21.1273
         3640       21.1273
         3650       21.1273
         3660       21.1273
         3670       21.1273
         3680       21.1273
         3690       21.1273
         3700       21.1273
         3710       21.1273
         3720       21.1273
         3730       21.1273
         3740       21.1273
         3750       21.1273
         3760       21.1273
         3770       21.1273
         3780       21.1273
         3790       21.1273
         3800       21.1273
         3810       21.1273
         3820       21.1273
         3830       21.1273
         3840       21.1273
         3850       21.1273
         3860       21.1273
         3870       21.1273
         3880       21.1273
         3890       21.1273
         3900       21.1273
         3910       21.1273
         3920       21.1273
         3930       21.1273
         3940       21.1273
         3950       21.1273
         3960       21.1273
         3970       21.1273
         3980       21.1273
         3990       21.1272
         4000       21.1272
         4010       21.1272
         4020       21.1272
         4030       21.1272
         4040       21.1272
         4050       21.1272
         4060       21.1272
         4070       21.1272
         4080       21.1272
         4090       21.1272
         4100       21.1272
         4110       21.1272
         4120       21.1272
         4130       21.1272
         4140       21.1272
         4150       21.1272
         4160       21.1272
         4170       21.1272
         4180       21.1272
         4190       21.1272
         4200       21.1272
         4210       21.1272
         4220       21.1272
         4230       21.1272
         4240       21.1272
         4250       21.1272
         4260       21.1272
         4270       21.1272
         4280       21.1272
         4290       21.1272
         4300       21.1272
         4310       21.1272
         4320       21.1272
         4330       21.1272
         4340       21.1272
         4350       21.1272
         4360       21.1272
         4370       21.1272
         4380       21.1272
         4390       21.1272
         4400       21.1272
         4410       21.1271
         4420       21.1271
         4430       21.1271
         4440       21.1271
         4450       21.1271
         4460       21.1271
         4470       21.1271
         4480       21.1271
         4490       21.1271
         4500       21.1271
         4510       21.1271
         4520       21.1271
         4530       21.1271
         4540       21.1271
         4550       21.1271
         4560       21.1271
         4570       21.1271
         4580       21.1271
         4590       21.1271
         4600       21.1271
         4610       21.1271
         4620       21.1271
         4630       21.1271
         4640       21.1271
         4650       21.1271
         4660       21.1271
         4670       21.1271
         4680       21.1271
         4690       21.1271
         4700       21.1271
         4710       21.1271
         4720       21.1271
         4730       21.1271
         4740        21.127
         4750        21.127
         4760        21.127
         4770        21.127
         4780        21.127
         4790        21.127
         4800        21.127
         4810        21.127
         4820        21.127
         4830        21.127
         4840        21.127
         4850        21.127
         4860        21.127
         4870        21.127
         4880        21.127
         4890        21.127
         4900        21.127
         4910        21.127
         4920        21.127
         4930        21.127
         4940        21.127
         4950        21.127
         4960        21.127
         4970        21.127
         4980        21.127
         4990        21.127
         5000        21.127
         5010       21.1269
         5020       21.1269
         5030       21.1269
         5040       21.1269
         5050       21.1269
         5060       21.1269
         5070       21.1269
         5080       21.1269
         5090       21.1269
         5100       21.1269
         5110       21.1269
         5120       21.1269
         5130       21.1269
         5140       21.1269
         5150       21.1269
         5160       21.1269
         5170       21.1269
         5180       21.1269
         5190       21.1269
         5200       21.1269
         5210       21.1269
         5220       21.1269
         5230       21.1269
         5240       21.1268
         5250       21.1268
         5260       21.1268
         5270       21.1268
         5280       21.1268
         5290       21.1268
         5300       21.1268
         5310       21.1268
         5320       21.1268
         5330       21.1268
         5340       21.1268
         5350       21.1268
         5360       21.1268
         5370       21.1268
         5380       21.1268
         5390       21.1268
         5400       21.1268
         5410       21.1268
         5420       21.1268
         5430       21.1268
         5440       21.1268
         5450       21.1267
         5460       21.1267
         5470       21.1267
         5480       21.1267
         5490       21.1267
         5500       21.1267
         5510       21.1267
         5520       21.1267
         5530       21.1267
         5540       21.1267
         5550       21.1267
         5560       21.1267
         5570       21.1267
         5580       21.1267
         5590       21.1267
         5600       21.1267
         5610       21.1267
         5620       21.1267
         5630       21.1266
         5640       21.1266
         5650       21.1266
         5660       21.1266
         5670       21.1266
         5680       21.1266
         5690       21.1266
         5700       21.1266
         5710       21.1266
         5720       21.1266
         5730       21.1266
         5740       21.1266
         5750       21.1266
         5760       21.1266
         5770       21.1266
         5780       21.1266
         5790       21.1266
         5800       21.1265
         5810       21.1265
         5820       21.1265
         5830       21.1265
         5840       21.1265
         5850       21.1265
         5860       21.1265
         5870       21.1265
         5880       21.1265
         5890       21.1265
         5900       21.1265
         5910       21.1265
         5920       21.1265
         5930       21.1265
         5940       21.1265
         5950       21.1264
         5960       21.1264
         5970       21.1264
         5980       21.1264
         5990       21.1264
         6000       21.1264
         6010       21.1264
         6020       21.1264
         6030       21.1264
         6040       21.1264
         6050       21.1264
         6060       21.1264
         6070       21.1264
         6080       21.1264
         6090       21.1264
         6100       21.1263
         6110       21.1263
         6120       21.1263
         6130       21.1263
         6140       21.1263
         6150       21.1263
         6160       21.1263
         6170       21.1263
         6180       21.1263
         6190       21.1263
         6200       21.1263
         6210       21.1263
         6220       21.1263
         6230       21.1262
         6240       21.1262
         6250       21.1262
         6260       21.1262
         6270       21.1262
         6280       21.1262
         6290       21.1262
         6300       21.1262
         6310       21.1262
         6320       21.1262
         6330       21.1262
         6340       21.1262
         6350       21.1262
         6360       21.1261
         6370       21.1261
         6380       21.1261
         6390       21.1261
         6400       21.1261
         6410       21.1261
         6420       21.1261
         6430       21.1261
         6440       21.1261
         6450       21.1261
         6460       21.1261
         6470        21.126
         6480        21.126
         6490        21.126
         6500        21.126
         6510        21.126
         6520        21.126
         6530        21.126
         6540        21.126
         6550        21.126
         6560        21.126
         6570        21.126
         6580        21.126
         6590       21.1259
         6600       21.1259
         6610       21.1259
         6620       21.1259
         6630       21.1259
         6640       21.1259
         6650       21.1259
         6660       21.1259
         6670       21.1259
         6680       21.1259
         6690       21.1258
         6700       21.1258
         6710       21.1258
         6720       21.1258
         6730       21.1258
         6740       21.1258
         6750       21.1258
         6760       21.1258
         6770       21.1258
         6780       21.1258
         6790       21.1258
         6800       21.1257
         6810       21.1257
         6820       21.1257
         6830       21.1257
         6840       21.1257
         6850       21.1257
         6860       21.1257
         6870       21.1257
         6880       21.1257
         6890       21.1256
         6900       21.1256
         6910       21.1256
         6920       21.1256
         6930       21.1256
         6940       21.1256
         6950       21.1256
         6960       21.1256
         6970       21.1256
         6980       21.1256
         6990       21.1255
         7000       21.1255
         7010       21.1255
         7020       21.1255
         7030       21.1255
         7040       21.1255
         7050       21.1255
         7060       21.1255
         7070       21.1255
         7080       21.1254
         7090       21.1254
         7100       21.1254
         7110       21.1254
         7120       21.1254
         7130       21.1254
         7140       21.1254
         7150       21.1254
         7160       21.1253
         7170       21.1253
         7180       21.1253
         7190       21.1253
         7200       21.1253
         7210       21.1253
         7220       21.1253
         7230       21.1253
         7240       21.1253
         7250       21.1252
         7260       21.1252
         7270       21.1252
         7280       21.1252
         7290       21.1252
         7300       21.1252
         7310       21.1252
         7320       21.1252
         7330       21.1251
         7340       21.1251
         7350       21.1251
         7360       21.1251
         7370       21.1251
         7380       21.1251
         7390       21.1251
         7400       21.1251
         7410        21.125
         7420        21.125
         7430        21.125
         7440        21.125
         7450        21.125
         7460        21.125
         7470        21.125
         7480       21.1249
         7490       21.1249
         7500       21.1249
         7510       21.1249
         7520       21.1249
         7530       21.1249
         7540       21.1249
         7550       21.1248
         7560       21.1248
         7570       21.1248
         7580       21.1248
         7590       21.1248
         7600       21.1248
         7610       21.1248
         7620       21.1248
         7630       21.1247
         7640       21.1247
         7650       21.1247
         7660       21.1247
         7670       21.1247
         7680       21.1247
         7690       21.1247
         7700       21.1246
         7710       21.1246
         7720       21.1246
         7730       21.1246
         7740       21.1246
         7750       21.1246
         7760       21.1245
         7770       21.1245
         7780       21.1245
         7790       21.1245
         7800       21.1245
         7810       21.1245
         7820       21.1245
         7830       21.1244
         7840       21.1244
         7850       21.1244
         7860       21.1244
         7870       21.1244
         7880       21.1244
         7890       21.1243
         7900       21.1243
         7910       21.1243
         7920       21.1243
         7930       21.1243
         7940       21.1243
         7950       21.1243
         7960       21.1242
         7970       21.1242
         7980       21.1242
         7990       21.1242
         8000       21.1242
         8010       21.1242
         8020       21.1241
         8030       21.1241
         8040       21.1241
         8050       21.1241
         8060       21.1241
         8070       21.1241
         8080        21.124
         8090        21.124
         8100        21.124
         8110        21.124
         8120        21.124
         8130        21.124
         8140       21.1239
         8150       21.1239
         8160       21.1239
         8170       21.1239
         8180       21.1239
         8190       21.1238
         8200       21.1238
         8210       21.1238
         8220       21.1238
         8230       21.1238
         8240       21.1238
         8250       21.1237
         8260       21.1237
         8270       21.1237
         8280       21.1237
         8290       21.1237
         8300       21.1237
         8310       21.1236
         8320       21.1236
         8330       21.1236
         8340       21.1236
         8350       21.1236
         8360       21.1235
         8370       21.1235
         8380       21.1235
         8390       21.1235
         8400       21.1235
         8410       21.1234
         8420       21.1234
         8430       21.1234
         8440       21.1234
         8450       21.1234
         8460       21.1233
         8470       21.1233
         8480       21.1233
         8490       21.1233
         8500       21.1233
         8510       21.1233
         8520       21.1232
         8530       21.1232
         8540       21.1232
         8550       21.1232
         8560       21.1232
         8570       21.1231
         8580       21.1231
         8590       21.1231
         8600       21.1231
         8610        21.123
         8620        21.123
         8630        21.123
         8640        21.123
         8650        21.123
         8660       21.1229
         8670       21.1229
         8680       21.1229
         8690       21.1229
         8700       21.1229
         8710       21.1228
         8720       21.1228
         8730       21.1228
         8740       21.1228
         8750       21.1228
         8760       21.1227
         8770       21.1227
         8780       21.1227
         8790       21.1227
         8800       21.1226
         8810       21.1226
         8820       21.1226
         8830       21.1226
         8840       21.1226
         8850       21.1225
         8860       21.1225
         8870       21.1225
         8880       21.1225
         8890       21.1224
         8900       21.1224
         8910       21.1224
         8920       21.1224
         8930       21.1224
         8940       21.1223
         8950       21.1223
         8960       21.1223
         8970       21.1223
         8980       21.1222
         8990       21.1222
         9000       21.1222
         9010       21.1222
         9020       21.1221
         9030       21.1221
         9040       21.1221
         9050       21.1221
         9060       21.1221
         9070        21.122
         9080        21.122
         9090        21.122
         9100        21.122
         9110       21.1219
         9120       21.1219
         9130       21.1219
         9140       21.1219
         9150       21.1218
         9160       21.1218
         9170       21.1218
         9180       21.1218
         9190       21.1217
         9200       21.1217
         9210       21.1217
         9220       21.1217
         9230       21.1216
         9240       21.1216
         9250       21.1216
         9260       21.1216
         9270       21.1215
         9280       21.1215
         9290       21.1215
         9300       21.1215
         9310       21.1214
         9320       21.1214
         9330       21.1214
         9340       21.1214
         9350       21.1213
         9360       21.1213
         9370       21.1213
         9380       21.1212
         9390       21.1212
         9400       21.1212
         9410       21.1212
         9420       21.1211
         9430       21.1211
         9440       21.1211
         9450       21.1211
         9460        21.121
         9470        21.121
         9480        21.121
         9490        21.121
         9500       21.1209
         9510       21.1209
         9520       21.1209
         9530       21.1208
         9540       21.1208
         9550       21.1208
         9560       21.1208
         9570       21.1207
         9580       21.1207
         9590       21.1207
         9600       21.1206
         9610       21.1206
         9620       21.1206
         9630       21.1206
         9640       21.1205
         9650       21.1205
         9660       21.1205
         9670       21.1204
         9680       21.1204
         9690       21.1204
         9700       21.1204
         9710       21.1203
         9720       21.1203
         9730       21.1203
         9740       21.1202
         9750       21.1202
         9760       21.1202
         9770       21.1202
         9780       21.1201
         9790       21.1201
         9800       21.1201
         9810         21.12
         9820         21.12
         9830         21.12
         9840       21.1199
         9850       21.1199
         9860       21.1199
         9870       21.1198
         9880       21.1198
         9890       21.1198
         9900       21.1198
         9910       21.1197
         9920       21.1197
         9930       21.1197
         9940       21.1196
         9950       21.1196
         9960       21.1196
         9970       21.1195
         9980       21.1195
         9990       21.1195
        10000       21.1194
        10010       21.1194
        10020       21.1194
        10030       21.1193
        10040       21.1193
        10050       21.1193
        10060       21.1192
        10070       21.1192
        10080       21.1192
        10090       21.1191
        10100       21.1191
        10110       21.1191
        10120        21.119
        10130        21.119
        10140        21.119
        10150       21.1189
        10160       21.1189
        10170       21.1189
        10180       21.1188
        10190       21.1188
        10200       21.1188
        10210       21.1187
        10220       21.1187
        10230       21.1187
        10240       21.1186
        10250       21.1186
        10260       21.1186
        10270       21.1185
        10280       21.1185
        10290       21.1185
        10300       21.1184
        10310       21.1184
        10320       21.1184
        10330       21.1183
        10340       21.1183
        10350       21.1183
        10360       21.1182
        10370       21.1182
        10380       21.1181
        10390       21.1181
        10400       21.1181
        10410        21.118
        10420        21.118
        10430        21.118
        10440       21.1179
        10450       21.1179
        10460       21.1179
        10470       21.1178
        10480       21.1178
        10490       21.1177
        10500       21.1177
        10510       21.1177
        10520       21.1176
        10530       21.1176
        10540       21.1176
        10550       21.1175
        10560       21.1175
        10570       21.1174
        10580       21.1174
        10590       21.1174
        10600       21.1173
        10610       21.1173
        10620       21.1173
        10630       21.1172
        10640       21.1172
        10650       21.1171
        10660       21.1171
        10670       21.1171
        10680        21.117
        10690        21.117
        10700       21.1169