# Probe 0 (0.05 0.05 0.005)
#       Probe             0
#        Time
           24   0.000952242
           40   0.000952242
           50   0.000952242
           60   0.000952242
           70   0.000952242
           80   0.000952242
           90   0.000952242
          100   0.000952242
          110   0.000952242
          120   0.000952242
          130   0.000952242
          140   0.000952242
          150   0.000952242
          160   0.000952242
          170   0.000952242
          180   0.000952242
          190   0.000952242
          200   0.000952242
          210   0.000952242
          220   0.000952242
          230   0.000952242
          240   0.000952242
          250   0.000952242
          260   0.000952242
          270   0.000952242
          280   0.000952242
          290   0.000952242
          300   0.000952242
          310   0.000952242
          320   0.000952242
          330   0.000952242
          340   0.000952242
          350   0.000952242
          360   0.000952242
          370   0.000952242
          380   0.000952242
          390   0.000952242
          400   0.000952242
          410   0.000952242
          420   0.000952242
          430   0.000952242
          440   0.000952242
          450   0.000952242
          460   0.000952242
          470   0.000952242
          480   0.000952242
          490   0.000952242
          500   0.000952242
          510   0.000952242
          520   0.000952242
          530   0.000952242
          540   0.000952242
          550   0.000952242
          560   0.000952242
          570   0.000952242
          580   0.000952242
          590   0.000952242
          600   0.000952242
          610   0.000952242
          620   0.000952242
          630   0.000952242
          640   0.000952242
          650   0.000952242
          660   0.000952242
          670   0.000952242
          680   0.000952242
          690   0.000952242
          700   0.000952242
          710   0.000952242
          720   0.000952242
          730   0.000952242
          740   0.000952242
          750   0.000952242
          760   0.000952242
          770   0.000952242
          780   0.000952242
          790   0.000952242
          800   0.000952241
          810   0.000952241
          820   0.000952241
          830   0.000952241
          840   0.000952241
          850   0.000952241
          860   0.000952241
          870   0.000952241
          880   0.000952241
          890   0.000952241
          900   0.000952241
          910   0.000952241
          920   0.000952241
          930   0.000952241
          940   0.000952241
          950   0.000952241
          960   0.000952241
          970   0.000952241
          980   0.000952241
          990   0.000952241
         1000   0.000952241
         1010   0.000952241
         1020   0.000952241
         1030   0.000952241
         1040   0.000952241
         1050   0.000952241
         1060   0.000952241
         1070   0.000952241
         1080   0.000952241
         1090   0.000952241
         1100   0.000952241
         1110   0.000952241
         1120   0.000952241
         1130   0.000952241
         1140   0.000952241
         1150   0.000952241
         1160   0.000952241
         1170   0.000952241
         1180   0.000952241
         1190   0.000952241
         1200   0.000952241
         1210   0.000952241
         1220   0.000952241
         1230   0.000952241
         1240   0.000952241
         1250   0.000952241
         1260   0.000952241
         1270   0.000952241
         1280   0.000952241
         1290   0.000952241
         1300   0.000952241
         1310   0.000952241
         1320   0.000952241
         1330   0.000952241
         1340   0.000952241
         1350   0.000952241
         1360   0.000952241
         1370   0.000952241
         1380   0.000952241
         1390   0.000952241
         1400   0.000952241
         1410   0.000952241
         1420   0.000952241
         1430   0.000952241
         1440   0.000952241
         1450   0.000952241
         1460   0.000952241
         1470   0.000952241
         1480   0.000952241
         1490   0.000952241
         1500   0.000952241
         1510   0.000952241
         1520   0.000952241
         1530   0.000952241
         1540   0.000952241
         1550   0.000952241
         1560   0.000952241
         1570   0.000952241
         1580   0.000952241
         1590   0.000952241
         1600   0.000952241
         1610   0.000952241
         1620   0.000952241
         1630   0.000952241
         1640   0.000952241
         1650   0.000952241
         1660   0.000952241
         1670   0.000952241
         1680   0.000952241
         1690   0.000952241
         1700   0.000952241
         1710   0.000952241
         1720   0.000952241
         1730   0.000952241
         1740   0.000952241
         1750   0.000952241
         1760   0.000952241
         1770   0.000952241
         1780   0.000952241
         1790   0.000952241
         1800   0.000952241
         1810   0.000952241
         1820   0.000952241
         1830   0.000952241
         1840   0.000952241
         1850   0.000952241
         1860   0.000952241
         1870   0.000952241
         1880   0.000952241
         1890   0.000952241
         1900   0.000952241
         1910   0.000952241
         1920   0.000952241
         1930   0.000952241
         1940   0.000952241
         1950   0.000952241
         1960   0.000952241
         1970   0.000952241
         1980   0.000952241
         1990   0.000952241
         2000   0.000952241
         2010   0.000952241
         2020   0.000952241
         2030   0.000952241
         2040   0.000952241
         2050   0.000952241
         2060   0.000952241
         2070   0.000952241
         2080   0.000952241
         2090   0.000952241
         2100   0.000952241
         2110   0.000952241
         2120   0.000952241
         2130   0.000952241
         2140   0.000952241
         2150   0.000952241
         2160   0.000952241
         2170   0.000952241
         2180   0.000952241
         2190   0.000952241
         2200   0.000952241
         2210   0.000952241
         2220   0.000952241
         2230   0.000952241
         2240   0.000952241
         2250   0.000952241
         2260   0.000952241
         2270   0.000952241
         2280   0.000952241
         2290   0.000952241
         2300   0.000952241
         2310    0.00095224
         2320    0.00095224
         2330    0.00095224
         2340    0.00095224
         2350    0.00095224
         2360    0.00095224
         2370    0.00095224
         2380    0.00095224
         2390    0.00095224
         2400    0.00095224
         2410    0.00095224
         2420    0.00095224
         2430    0.00095224
         2440    0.00095224
         2450    0.00095224
         2460    0.00095224
         2470    0.00095224
         2480    0.00095224
         2490    0.00095224
         2500    0.00095224
         2510    0.00095224
         2520    0.00095224
         2530    0.00095224
         2540    0.00095224
         2550    0.00095224
         2560    0.00095224
         2570    0.00095224
         2580    0.00095224
         2590    0.00095224
         2600    0.00095224
         2610    0.00095224
         2620    0.00095224
         2630    0.00095224
         2640    0.00095224
         2650    0.00095224
         2660    0.00095224
         2670    0.00095224
         2680    0.00095224
         2690    0.00095224
         2700    0.00095224
         2710    0.00095224
         2720    0.00095224
         2730    0.00095224
         2740   0.000952239
         2750   0.000952239
         2760   0.000952239
         2770   0.000952239
         2780   0.000952239
         2790   0.000952239
         2800   0.000952239
         2810   0.000952239
         2820   0.000952239
         2830   0.000952239
         2840   0.000952239
         2850   0.000952239
         2860   0.000952239
         2870   0.000952239
         2880   0.000952239
         2890   0.000952239
         2900   0.000952239
         2910   0.000952239
         2920   0.000952239
         2930   0.000952239
         2940   0.000952239
         2950   0.000952239
         2960   0.000952239
         2970   0.000952239
         2980   0.000952239
         2990   0.000952239
         3000   0.000952239
         3010   0.000952239
         3020   0.000952239
         3030   0.000952238
         3040   0.000952238
         3050   0.000952238
         3060   0.000952238
         3070   0.000952238
         3080   0.000952238
         3090   0.000952238
         3100   0.000952238
         3110   0.000952238
         3120   0.000952238
         3130   0.000952238
         3140   0.000952238
         3150   0.000952238
         3160   0.000952238
         3170   0.000952238
         3180   0.000952238
         3190   0.000952238
         3200   0.000952238
         3210   0.000952238
         3220   0.000952238
         3230   0.000952238
         3240   0.000952238
         3250   0.000952238
         3260   0.000952237
         3270   0.000952237
         3280   0.000952237
         3290   0.000952237
         3300   0.000952237
         3310   0.000952237
         3320   0.000952237
         3330   0.000952237
         3340   0.000952237
         3350   0.000952237
         3360   0.000952237
         3370   0.000952237
         3380   0.000952237
         3390   0.000952237
         3400   0.000952237
         3410   0.000952237
         3420   0.000952237
         3430   0.000952237
         3440   0.000952236
         3450   0.000952236
         3460   0.000952236
         3470   0.000952236
         3480   0.000952236
         3490   0.000952236
         3500   0.000952236
         3510   0.000952236
         3520   0.000952236
         3530   0.000952236
         3540   0.000952236
         3550   0.000952236
         3560   0.000952236
         3570   0.000952236
         3580   0.000952236
         3590   0.000952236
         3600   0.000952235
         3610   0.000952235
         3620   0.000952235
         3630   0.000952235
         3640   0.000952235
         3650   0.000952235
         3660   0.000952235
         3670   0.000952235
         3680   0.000952235
         3690   0.000952235
         3700   0.000952235
         3710   0.000952235
         3720   0.000952235
         3730   0.000952235
         3740   0.000952234
         3750   0.000952234
         3760   0.000952234
         3770   0.000952234
         3780   0.000952234
         3790   0.000952234
         3800   0.000952234
         3810   0.000952234
         3820   0.000952234
         3830   0.000952234
         3840   0.000952234
         3850   0.000952234
         3860   0.000952234
         3870   0.000952233
         3880   0.000952233
         3890   0.000952233
         3900   0.000952233
         3910   0.000952233
         3920   0.000952233
         3930   0.000952233
         3940   0.000952233
         3950   0.000952233
         3960   0.000952233
         3970   0.000952233
         3980   0.000952232
         3990   0.000952232
         4000   0.000952232
         4010   0.000952232
         4020   0.000952232
         4030   0.000952232
         4040   0.000952232
         4050   0.000952232
         4060   0.000952232
         4070   0.000952232
         4080   0.000952232
         4090   0.000952231
         4100   0.000952231
         4110   0.000952231
         4120   0.000952231
         4130   0.000952231
         4140   0.000952231
         4150   0.000952231
         4160   0.000952231
         4170   0.000952231
         4180   0.000952231
         4190    0.00095223
         4200    0.00095223
         4210    0.00095223
         4220    0.00095223
         4230    0.00095223
         4240    0.00095223
         4250    0.00095223
         4260    0.00095223
         4270    0.00095223
         4280   0.000952229
         4290   0.000952229
         4300   0.000952229
         4310   0.000952229
         4320   0.000952229
         4330   0.000952229
         4340   0.000952229
         4350   0.000952229
         4360   0.000952229
         4370   0.000952228
         4380   0.000952228
         4390   0.000952228
         4400   0.000952228
         4410   0.000952228
         4420   0.000952228
         4430   0.000952228
         4440   0.000952228
         4450   0.000952227
         4460   0.000952227
         4470   0.000952227
         4480   0.000952227
         4490   0.000952227
         4500   0.000952227
         4510   0.000952227
         4520   0.000952226
         4530   0.000952226
         4540   0.000952226
         4550   0.000952226
         4560   0.000952226
         4570   0.000952226
         4580   0.000952226
         4590   0.000952226
         4600   0.000952225
         4610   0.000952225
         4620   0.000952225
         4630   0.000952225
         4640   0.000952225
         4650   0.000952225
         4660   0.000952225
         4670   0.000952224
         4680   0.000952224
         4690   0.000952224
         4700   0.000952224
         4710   0.000952224
         4720   0.000952224
         4730   0.000952223
         4740   0.000952223
         4750   0.000952223
         4760   0.000952223
         4770   0.000952223
         4780   0.000952223
         4790   0.000952223
         4800   0.000952222
         4810   0.000952222
         4820   0.000952222
         4830   0.000952222
         4840   0.000952222
         4850   0.000952222
         4860   0.000952221
         4870   0.000952221
         4880   0.000952221
         4890   0.000952221
         4900   0.000952221
         4910   0.000952221
         4920    0.00095222
         4930    0.00095222
         4940    0.00095222
         4950    0.00095222
         4960    0.00095222
         4970    0.00095222
         4980   0.000952219
         4990   0.000952219
         5000   0.000952219
         5010   0.000952219
         5020   0.000952219
         5030   0.000952218
         5040   0.000952218
         5050   0.000952218
         5060   0.000952218
         5070   0.000952218
         5080   0.000952218
         5090   0.000952217
         5100   0.000952217
         5110   0.000952217
         5120   0.000952217
         5130   0.000952217
         5140   0.000952216
         5150   0.000952216
         5160   0.000952216
         5170   0.000952216
         5180   0.000952216
         5190   0.000952215
         5200   0.000952215
         5210   0.000952215
         5220   0.000952215
         5230   0.000952215
         5240   0.000952214
         5250   0.000952214
         5260   0.000952214
         5270   0.000952214
         5280   0.000952214
         5290   0.000952213
         5300   0.000952213
         5310   0.000952213
         5320   0.000952213
         5330   0.000952212
         5340   0.000952212
         5350   0.000952212
         5360   0.000952212
         5370   0.000952212
         5380   0.000952211
         5390   0.000952211
         5400   0.000952211
         5410   0.000952211
         5420    0.00095221
         5430    0.00095221
         5440    0.00095221
         5450    0.00095221
         5460   0.000952209
         5470   0.000952209
         5480   0.000952209
         5490   0.000952209
         5500   0.000952209
         5510   0.000952208
         5520   0.000952208
         5530   0.000952208
         5540   0.000952208
         5550   0.000952207
         5560   0.000952207
         5570   0.000952207
         5580   0.000952207
         5590   0.000952206
         5600   0.000952206
         5610   0.000952206
         5620   0.000952206
         5630   0.000952205
         5640   0.000952205
         5650   0.000952205
         5660   0.000952205
         5670   0.000952204
         5680   0.000952204
         5690   0.000952204
         5700   0.000952203
         5710   0.000952203
         5720   0.000952203
         5730   0.000952203
         5740   0.000952202
         5750   0.000952202
         5760   0.000952202
         5770   0.000952202
         5780   0.000952201
         5790   0.000952201
         5800   0.000952201
         5810     0.0009522
         5820     0.0009522
         5830     0.0009522
         5840     0.0009522
         5850   0.000952199
         5860   0.000952199
         5870   0.000952199
         5880   0.000952198
         5890   0.000952198
         5900   0.000952198
         5910   0.000952198
         5920   0.000952197
         5930   0.000952197
         5940   0.000952197
         5950   0.000952196
         5960   0.000952196
         5970   0.000952196
         5980   0.000952195
         5990   0.000952195
         6000   0.000952195
         6010   0.000952194
         6020   0.000952194
         6030   0.000952194
         6040   0.000952194
         6050   0.000952193
         6060   0.000952193
         6070   0.000952193
         6080   0.000952192
         6090   0.000952192
         6100   0.000952192
         6110   0.000952191
         6120   0.000952191
         6130   0.000952191
         6140    0.00095219
         6150    0.00095219
         6160    0.00095219
         6170   0.000952189
         6180   0.000952189
         6190   0.000952189
         6200   0.000952188
         6210   0.000952188
         6220   0.000952188
         6230   0.000952187
         6240   0.000952187
         6250   0.000952186
         6260   0.000952186
         6270   0.000952186
         6280   0.000952185
         6290   0.000952185
         6300   0.000952185
         6310   0.000952184
         6320   0.000952184
         6330   0.000952184
         6340   0.000952183
         6350   0.000952183
         6360   0.000952183
         6370   0.000952182
         6380   0.000952182
         6390   0.000952181
         6400   0.000952181
         6410   0.000952181
         6420    0.00095218
         6430    0.00095218
         6440   0.000952179
         6450   0.000952179
         6460   0.000952179
         6470   0.000952178
         6480   0.000952178
         6490   0.000952178
         6500   0.000952177
         6510   0.000952177
         6520   0.000952176
         6530   0.000952176
         6540   0.000952176
         6550   0.000952175
         6560   0.000952175
         6570   0.000952174
         6580   0.000952174
         6590   0.000952173
         6600   0.000952173
         6610   0.000952173
         6620   0.000952172
         6630   0.000952172
         6640   0.000952171
         6650   0.000952171
         6660   0.000952171
         6670    0.00095217
         6680    0.00095217
         6690   0.000952169
         6700   0.000952169
         6710   0.000952168
         6720   0.000952168
         6730   0.000952168
         6740   0.000952167
         6750   0.000952167
         6760   0.000952166
         6770   0.000952166
         6780   0.000952165
         6790   0.000952165
         6800   0.000952164
         6810   0.000952164
         6820   0.000952163
         6830   0.000952163
         6840   0.000952163
         6850   0.000952162
         6860   0.000952162
         6870   0.000952161
         6880   0.000952161
         6890    0.00095216
         6900    0.00095216
         6910   0.000952159
         6920   0.000952159
         6930   0.000952158
         6940   0.000952158
         6950   0.000952157
         6960   0.000952157
         6970   0.000952156
         6980   0.000952156
         6990   0.000952155
         7000   0.000952155
         7010   0.000952154
         7020   0.000952154
         7030   0.000952153
         7040   0.000952153
         7050   0.000952152
         7060   0.000952152
         7070   0.000952151
         7080   0.000952151
         7090    0.00095215
         7100    0.00095215
         7110   0.000952149
         7120   0.000952149
         7130   0.000952148
         7140   0.000952148
         7150   0.000952147
         7160   0.000952147
         7170   0.000952146
         7180   0.000952146
         7190   0.000952145
         7200   0.000952145
         7210   0.000952144
         7220   0.000952143
         7230   0.000952143
         7240   0.000952142
         7250   0.000952142
         7260   0.000952141
         7270   0.000952141
         7280    0.00095214
         7290    0.00095214
         7300   0.000952139
         7310   0.000952138
         7320   0.000952138
         7330   0.000952137
         7340   0.000952137
         7350   0.000952136
         7360   0.000952136
         7370   0.000952135
         7380   0.000952134
         7390   0.000952134
         7400   0.000952133
         7410   0.000952133
         7420   0.000952132
         7430   0.000952132
         7440   0.000952131
         7450    0.00095213
         7460    0.00095213
         7470   0.000952129
         7480   0.000952129
         7490   0.000952128
         7500   0.000952127
         7510   0.000952127
         7520   0.000952126
         7530   0.000952125
         7540   0.000952125
         7550   0.000952124
         7560   0.000952124
         7570   0.000952123
         7580   0.000952122
         7590   0.000952122
         7600   0.000952121
         7610    0.00095212
         7620    0.00095212
         7630   0.000952119
         7640   0.000952119
         7650   0.000952118
         7660   0.000952117
         7670   0.000952117
         7680   0.000952116
         7690   0.000952115
         7700   0.000952115
         7710   0.000952114
         7720   0.000952113
         7730   0.000952113
         7740   0.000952112
         7750   0.000952111
         7760   0.000952111
         7770    0.00095211
         7780   0.000952109
         7790   0.000952109
         7800   0.000952108
         7810   0.000952107
         7820   0.000952107
         7830   0.000952106
         7840   0.000952105
         7850   0.000952104
         7860   0.000952104
         7870   0.000952103
         7880   0.000952102
         7890   0.000952102
         7900   0.000952101
         7910     0.0009521
         7920     0.0009521
         7930   0.000952099
         7940   0.000952098
         7950   0.000952097
         7960   0.000952097
         7970   0.000952096
         7980   0.000952095
         7990   0.000952094
         8000   0.000952094
         8010   0.000952093
         8020   0.000952092
         8030   0.000952091
         8040   0.000952091
         8050    0.00095209
         8060   0.000952089
         8070   0.000952088
         8080   0.000952088
         8090   0.000952087
         8100   0.000952086
         8110   0.000952085
         8120   0.000952085
         8130   0.000952084
         8140   0.000952083
         8150   0.000952082
         8160   0.000952081
         8170   0.000952081
         8180    0.00095208
         8190   0.000952079
         8200   0.000952078
         8210   0.000952078
         8220   0.000952077
         8230   0.000952076
         8240   0.000952075
         8250   0.000952074
         8260   0.000952073
         8270   0.000952073
         8280   0.000952072
         8290   0.000952071
         8300    0.00095207
         8310   0.000952069
         8320   0.000952069
         8330   0.000952068
         8340   0.000952067
         8350   0.000952066
         8360   0.000952065
         8370   0.000952064
         8380   0.000952063
         8390   0.000952063
         8400   0.000952062
         8410   0.000952061
         8420    0.00095206
         8430   0.000952059
         8440   0.000952058
         8450   0.000952057
         8460   0.000952057
         8470   0.000952056
         8480   0.000952055
         8490   0.000952054
         8500   0.000952053
         8510   0.000952052
         8520   0.000952051
         8530    0.00095205
         8540   0.000952049
         8550   0.000952049
         8560   0.000952048
         8570   0.000952047
         8580   0.000952046
         8590   0.000952045
         8600   0.000952044
         8610   0.000952043
         8620   0.000952042
         8630   0.000952041
         8640    0.00095204
         8650   0.000952039
         8660   0.000952038
         8670   0.000952038
         8680   0.000952037
         8690   0.000952036
         8700   0.000952035
         8710   0.000952034
         8720   0.000952033
         8730   0.000952032
         8740   0.000952031
         8750    0.00095203
         8760   0.000952029
         8770   0.000952028
         8780   0.000952027
         8790   0.000952026
         8800   0.000952025
         8810   0.000952024
         8820   0.000952023
         8830   0.000952022
         8840   0.000952021
         8850    0.00095202
         8860   0.000952019
         8870   0.000952018
         8880   0.000952017
         8890   0.000952016
         8900   0.000952015
         8910   0.000952014
         8920   0.000952013
         8930   0.000952012
         8940   0.000952011
         8950    0.00095201
         8960   0.000952009
         8970   0.000952008
         8980   0.000952007
         8990   0.000952006
         9000   0.000952005
         9010   0.000952004
         9020   0.000952003
         9030   0.000952001
         9040      0.000952
         9050   0.000951999
         9060   0.000951998
         9070   0.000951997
         9080   0.000951996
         9090   0.000951995
         9100   0.000951994
         9110   0.000951993
         9120   0.000951992
         9130   0.000951991
         9140    0.00095199
         9150   0.000951988
         9160   0.000951987
         9170   0.000951986
         9180   0.000951985
         9190   0.000951984
         9200   0.000951983
         9210   0.000951982
         9220   0.000951981
         9230   0.000951979
         9240   0.000951978
         9250   0.000951977
         9260   0.000951976
         9270   0.000951975
         9280   0.000951974
         9290   0.000951973
         9300   0.000951971
         9310    0.00095197
         9320   0.000951969
         9330   0.000951968
         9340   0.000951967
         9350   0.000951966
         9360   0.000951964
         9370   0.000951963
         9380   0.000951962
         9390   0.000951961
         9400    0.00095196
         9410   0.000951958
         9420   0.000951957
         9430   0.000951956
         9440   0.000951955
         9450   0.000951954
         9460   0.000951952
         9470   0.000951951
         9480    0.00095195
         9490   0.000951949
         9500   0.000951947
         9510   0.000951946
         9520   0.000951945
         9530   0.000951944
         9540   0.000951942
         9550   0.000951941
         9560    0.00095194
         9570   0.000951939
         9580   0.000951937
         9590   0.000951936
         9600   0.000951935
         9610   0.000951934
         9620   0.000951932
         9630   0.000951931
         9640    0.00095193
         9650   0.000951928
         9660   0.000951927
         9670   0.000951926
         9680   0.000951924
         9690   0.000951923
         9700   0.000951922
         9710   0.000951921
         9720   0.000951919
         9730   0.000951918
         9740   0.000951917
         9750   0.000951915
         9760   0.000951914
         9770   0.000951912
         9780   0.000951911
         9790    0.00095191
         9800   0.000951908
         9810   0.000951907
         9820   0.000951906
         9830   0.000951904
         9840   0.000951903
         9850   0.000951902
         9860     0.0009519
         9870   0.000951899
         9880   0.000951897
         9890   0.000951896
         9900   0.000951895
         9910   0.000951893
         9920   0.000951892
         9930    0.00095189
         9940   0.000951889
         9950   0.000951888
         9960   0.000951886
         9970   0.000951885
         9980   0.000951883
         9990   0.000951882
        10000    0.00095188
        10010   0.000951879
        10020   0.000951877
        10030   0.000951876
        10040   0.000951875
        10050   0.000951873
        10060   0.000951872
        10070    0.00095187
        10080   0.000951869
        10090   0.000951867
        10100   0.000951866
        10110   0.000951864
        10120   0.000951863
        10130   0.000951861
        10140    0.00095186
        10150   0.000951858
        10160   0.000951857
        10170   0.000951855
        10180   0.000951854
        10190   0.000951852
        10200   0.000951851
        10210   0.000951849
        10220   0.000951848
        10230   0.000951846
        10240   0.000951844
        10250   0.000951843
        10260   0.000951841
        10270    0.00095184
        10280   0.000951838
        10290   0.000951837
        10300   0.000951835
        10310   0.000951833
        10320   0.000951832
        10330    0.00095183
        10340   0.000951829
        10350   0.000951827
        10360   0.000951825
        10370   0.000951824
        10380   0.000951822
        10390   0.000951821
        10400   0.000951819
        10410   0.000951817
        10420   0.000951816
        10430   0.000951814
        10440   0.000951812
        10450   0.000951811
        10460   0.000951809
        10470   0.000951808
        10480   0.000951806
        10490   0.000951804
        10500   0.000951803
        10510   0.000951801
        10520   0.000951799
        10530   0.000951797
        10540   0.000951796
        10550   0.000951794
        10560   0.000951792
        10570   0.000951791
        10580   0.000951789
        10590   0.000951787
        10600   0.000951786
        10610   0.000951784
        10620   0.000951782
        10630    0.00095178
        10640   0.000951779
        10650   0.000951777
        10660   0.000951775
        10670   0.000951773
        10680   0.000951772
        10690    0.00095177
        10700   0.000951768