# Probe 0 (0.05 0.05 0.005)
#       Probe             0
#        Time
           24       22.1275
           40       22.1275
           50       22.1275
           60       22.1275
           70       22.1275
           80       22.1275
           90       22.1275
          100       22.1275
          110       22.1275
          120       22.1275
          130       22.1275
          140       22.1275
          150       22.1275
          160       22.1275
          170       22.1275
          180       22.1275
          190       22.1275
          200       22.1275
          210       22.1275
          220       22.1275
          230       22.1275
          240       22.1275
          250       22.1275
          260       22.1275
          270       22.1275
          280       22.1275
          290       22.1275
          300       22.1275
          310       22.1275
          320       22.1275
          330       22.1275
          340       22.1275
          350       22.1275
          360       22.1275
          370       22.1275
          380       22.1275
          390       22.1275
          400       22.1275
          410       22.1275
          420       22.1275
          430       22.1275
          440       22.1275
          450       22.1275
          460       22.1275
          470       22.1275
          480       22.1275
          490       22.1275
          500       22.1275
          510       22.1275
          520       22.1275
          530       22.1275
          540       22.1275
          550       22.1275
          560       22.1275
          570       22.1275
          580       22.1275
          590       22.1275
          600       22.1275
          610       22.1275
          620       22.1275
          630       22.1275
          640       22.1275
          650       22.1275
          660       22.1275
          670       22.1275
          680       22.1275
          690       22.1275
          700       22.1275
          710       22.1275
          720       22.1275
          730       22.1275
          740       22.1275
          750       22.1275
          760       22.1275
          770       22.1275
          780       22.1275
          790       22.1275
          800       22.1275
          810       22.1275
          820       22.1275
          830       22.1275
          840       22.1275
          850       22.1275
          860       22.1275
          870       22.1275
          880       22.1275
          890       22.1275
          900       22.1275
          910       22.1275
          920       22.1275
          930       22.1275
          940       22.1275
          950       22.1275
          960       22.1275
          970       22.1275
          980       22.1275
          990       22.1275
         1000       22.1275
         1010       22.1275
         1020       22.1275
         1030       22.1275
         1040       22.1275
         1050       22.1275
         1060       22.1275
         1070       22.1275
         1080       22.1275
         1090       22.1275
         1100       22.1275
         1110       22.1275
         1120       22.1275
         1130       22.1275
         1140       22.1275
         1150       22.1275
         1160       22.1274
         1170       22.1274
         1180       22.1274
         1190       22.1274
         1200       22.1274
         1210       22.1274
         1220       22.1274
         1230       22.1274
         1240       22.1274
         1250       22.1274
         1260       22.1274
         1270       22.1274
         1280       22.1274
         1290       22.1274
         1300       22.1274
         1310       22.1274
         1320       22.1274
         1330       22.1274
         1340       22.1274
         1350       22.1274
         1360       22.1274
         1370       22.1274
         1380       22.1274
         1390       22.1274
         1400       22.1274
         1410       22.1274
         1420       22.1274
         1430       22.1274
         1440       22.1274
         1450       22.1274
         1460       22.1274
         1470       22.1274
         1480       22.1274
         1490       22.1274
         1500       22.1274
         1510       22.1274
         1520       22.1274
         1530       22.1274
         1540       22.1274
         1550       22.1274
         1560       22.1274
         1570       22.1274
         1580       22.1274
         1590       22.1274
         1600       22.1274
         1610       22.1274
         1620       22.1274
         1630       22.1274
         1640       22.1274
         1650       22.1274
         1660       22.1274
         1670       22.1274
         1680       22.1274
         1690       22.1274
         1700       22.1274
         1710       22.1274
         1720       22.1274
         1730       22.1274
         1740       22.1274
         1750       22.1274
         1760       22.1274
         1770       22.1274
         1780       22.1274
         1790       22.1274
         1800       22.1274
         1810       22.1274
         1820       22.1274
         1830       22.1274
         1840       22.1274
         1850       22.1274
         1860       22.1274
         1870       22.1274
         1880       22.1274
         1890       22.1274
         1900       22.1274
         1910       22.1274
         1920       22.1274
         1930       22.1274
         1940       22.1274
         1950       22.1274
         1960       22.1274
         1970       22.1274
         1980       22.1274
         1990       22.1274
         2000       22.1274
         2010       22.1274
         2020       22.1274
         2030       22.1274
         2040       22.1274
         2050       22.1274
         2060       22.1274
         2070       22.1274
         2080       22.1274
         2090       22.1274
         2100       22.1274
         2110       22.1274
         2120       22.1274
         2130       22.1274
         2140       22.1274
         2150       22.1274
         2160       22.1274
         2170       22.1274
         2180       22.1274
         2190       22.1274
         2200       22.1274
         2210       22.1274
         2220       22.1274
         2230       22.1274
         2240       22.1274
         2250       22.1274
         2260       22.1274
         2270       22.1274
         2280       22.1274
         2290       22.1274
         2300       22.1274
         2310       22.1274
         2320       22.1274
         2330       22.1274
         2340       22.1274
         2350       22.1274
         2360       22.1274
         2370       22.1274
         2380       22.1274
         2390       22.1274
         2400       22.1274
         2410       22.1274
         2420       22.1274
         2430       22.1274
         2440       22.1274
         2450       22.1274
         2460       22.1274
         2470       22.1274
         2480       22.1274
         2490       22.1274
         2500       22.1274
         2510       22.1274
         2520       22.1274
         2530       22.1274
         2540       22.1274
         2550       22.1274
         2560       22.1274
         2570       22.1274
         2580       22.1274
         2590       22.1274
         2600       22.1274
         2610       22.1274
         2620       22.1274
         2630       22.1274
         2640       22.1274
         2650       22.1274
         2660       22.1274
         2670       22.1274
         2680       22.1274
         2690       22.1274
         2700       22.1274
         2710       22.1274
         2720       22.1274
         2730       22.1274
         2740       22.1274
         2750       22.1274
         2760       22.1274
         2770       22.1274
         2780       22.1274
         2790       22.1274
         2800       22.1274
         2810       22.1274
         2820       22.1274
         2830       22.1274
         2840       22.1274
         2850       22.1274
         2860       22.1274
         2870       22.1274
         2880       22.1274
         2890       22.1274
         2900       22.1274
         2910       22.1274
         2920       22.1274
         2930       22.1274
         2940       22.1274
         2950       22.1274
         2960       22.1274
         2970       22.1274
         2980       22.1274
         2990       22.1274
         3000       22.1274
         3010       22.1274
         3020       22.1274
         3030       22.1274
         3040       22.1274
         3050       22.1274
         3060       22.1274
         3070       22.1274
         3080       22.1274
         3090       22.1274
         3100       22.1274
         3110       22.1274
         3120       22.1274
         3130       22.1274
         3140       22.1274
         3150       22.1274
         3160       22.1274
         3170       22.1274
         3180       22.1274
         3190       22.1274
         3200       22.1274
         3210       22.1274
         3220       22.1274
         3230       22.1274
         3240       22.1274
         3250       22.1274
         3260       22.1274
         3270       22.1274
         3280       22.1274
         3290       22.1274
         3300       22.1274
         3310       22.1274
         3320       22.1274
         3330       22.1274
         3340       22.1274
         3350       22.1274
         3360       22.1273
         3370       22.1273
         3380       22.1273
         3390       22.1273
         3400       22.1273
         3410       22.1273
         3420       22.1273
         3430       22.1273
         3440       22.1273
         3450       22.1273
         3460       22.1273
         3470       22.1273
         3480       22.1273
         3490       22.1273
         3500       22.1273
         3510       22.1273
         3520       22.1273
         3530       22.1273
         3540       22.1273
         3550       22.1273
         3560       22.1273
         3570       22.1273
         3580       22.1273
         3590       22.1273
         3600       22.1273
         3610       22.1273
         3620       22.1273
         3630       22.1273
         3640       22.1273
         3650       22.1273
         3660       22.1273
         3670       22.1273
         3680       22.1273
         3690       22.1273
         3700       22.1273
         3710       22.1273
         3720       22.1273
         3730       22.1273
         3740       22.1273
         3750       22.1273
         3760       22.1273
         3770       22.1273
         3780       22.1273
         3790       22.1273
         3800       22.1273
         3810       22.1273
         3820       22.1273
         3830       22.1273
         3840       22.1273
         3850       22.1273
         3860       22.1273
         3870       22.1273
         3880       22.1273
         3890       22.1273
         3900       22.1273
         3910       22.1273
         3920       22.1273
         3930       22.1273
         3940       22.1273
         3950       22.1273
         3960       22.1273
         3970       22.1273
         3980       22.1273
         3990       22.1272
         4000       22.1272
         4010       22.1272
         4020       22.1272
         4030       22.1272
         4040       22.1272
         4050       22.1272
         4060       22.1272
         4070       22.1272
         4080       22.1272
         4090       22.1272
         4100       22.1272
         4110       22.1272
         4120       22.1272
         4130       22.1272
         4140       22.1272
         4150       22.1272
         4160       22.1272
         4170       22.1272
         4180       22.1272
         4190       22.1272
         4200       22.1272
         4210       22.1272
         4220       22.1272
         4230       22.1272
         4240       22.1272
         4250       22.1272
         4260       22.1272
         4270       22.1272
         4280       22.1272
         4290       22.1272
         4300       22.1272
         4310       22.1272
         4320       22.1272
         4330       22.1272
         4340       22.1272
         4350       22.1272
         4360       22.1272
         4370       22.1272
         4380       22.1272
         4390       22.1272
         4400       22.1272
         4410       22.1271
         4420       22.1271
         4430       22.1271
         4440       22.1271
         4450       22.1271
         4460       22.1271
         4470       22.1271
         4480       22.1271
         4490       22.1271
         4500       22.1271
         4510       22.1271
         4520       22.1271
         4530       22.1271
         4540       22.1271
         4550       22.1271
         4560       22.1271
         4570       22.1271
         4580       22.1271
         4590       22.1271
         4600       22.1271
         4610       22.1271
         4620       22.1271
         4630       22.1271
         4640       22.1271
         4650       22.1271
         4660       22.1271
         4670       22.1271
         4680       22.1271
         4690       22.1271
         4700       22.1271
         4710       22.1271
         4720       22.1271
         4730       22.1271
         4740        22.127
         4750        22.127
         4760        22.127
         4770        22.127
         4780        22.127
         4790        22.127
         4800        22.127
         4810        22.127
         4820        22.127
         4830        22.127
         4840        22.127
         4850        22.127
         4860        22.127
         4870        22.127
         4880        22.127
         4890        22.127
         4900        22.127
         4910        22.127
         4920        22.127
         4930        22.127
         4940        22.127
         4950        22.127
         4960        22.127
         4970        22.127
         4980        22.127
         4990        22.127
         5000        22.127
         5010       22.1269
         5020       22.1269
         5030       22.1269
         5040       22.1269
         5050       22.1269
         5060       22.1269
         5070       22.1269
         5080       22.1269
         5090       22.1269
         5100       22.1269
         5110       22.1269
         5120       22.1269
         5130       22.1269
         5140       22.1269
         5150       22.1269
         5160       22.1269
         5170       22.1269
         5180       22.1269
         5190       22.1269
         5200       22.1269
         5210       22.1269
         5220       22.1269
         5230       22.1269
         5240       22.1268
         5250       22.1268
         5260       22.1268
         5270       22.1268
         5280       22.1268
         5290       22.1268
         5300       22.1268
         5310       22.1268
         5320       22.1268
         5330       22.1268
         5340       22.1268
         5350       22.1268
         5360       22.1268
         5370       22.1268
         5380       22.1268
         5390       22.1268
         5400       22.1268
         5410       22.1268
         5420       22.1268
         5430       22.1268
         5440       22.1268
         5450       22.1267
         5460       22.1267
         5470       22.1267
         5480       22.1267
         5490       22.1267
         5500       22.1267
         5510       22.1267
         5520       22.1267
         5530       22.1267
         5540       22.1267
         5550       22.1267
         5560       22.1267
         5570       22.1267
         5580       22.1267
         5590       22.1267
         5600       22.1267
         5610       22.1267
         5620       22.1267
         5630       22.1266
         5640       22.1266
         5650       22.1266
         5660       22.1266
         5670       22.1266
         5680       22.1266
         5690       22.1266
         5700       22.1266
         5710       22.1266
         5720       22.1266
         5730       22.1266
         5740       22.1266
         5750       22.1266
         5760       22.1266
         5770       22.1266
         5780       22.1266
         5790       22.1266
         5800       22.1265
         5810       22.1265
         5820       22.1265
         5830       22.1265
         5840       22.1265
         5850       22.1265
         5860       22.1265
         5870       22.1265
         5880       22.1265
         5890       22.1265
         5900       22.1265
         5910       22.1265
         5920       22.1265
         5930       22.1265
         5940       22.1265
         5950       22.1264
         5960       22.1264
         5970       22.1264
         5980       22.1264
         5990       22.1264
         6000       22.1264
         6010       22.1264
         6020       22.1264
         6030       22.1264
         6040       22.1264
         6050       22.1264
         6060       22.1264
         6070       22.1264
         6080       22.1264
         6090       22.1264
         6100       22.1263
         6110       22.1263
         6120       22.1263
         6130       22.1263
         6140       22.1263
         6150       22.1263
         6160       22.1263
         6170       22.1263
         6180       22.1263
         6190       22.1263
         6200       22.1263
         6210       22.1263
         6220       22.1263
         6230       22.1262
         6240       22.1262
         6250       22.1262
         6260       22.1262
         6270       22.1262
         6280       22.1262
         6290       22.1262
         6300       22.1262
         6310       22.1262
         6320       22.1262
         6330       22.1262
         6340       22.1262
         6350       22.1262
         6360       22.1261
         6370       22.1261
         6380       22.1261
         6390       22.1261
         6400       22.1261
         6410       22.1261
         6420       22.1261
         6430       22.1261
         6440       22.1261
         6450       22.1261
         6460       22.1261
         6470        22.126
         6480        22.126
         6490        22.126
         6500        22.126
         6510        22.126
         6520        22.126
         6530        22.126
         6540        22.126
         6550        22.126
         6560        22.126
         6570        22.126
         6580        22.126
         6590       22.1259
         6600       22.1259
         6610       22.1259
         6620       22.1259
         6630       22.1259
         6640       22.1259
         6650       22.1259
         6660       22.1259
         6670       22.1259
         6680       22.1259
         6690       22.1258
         6700       22.1258
         6710       22.1258
         6720       22.1258
         6730       22.1258
         6740       22.1258
         6750       22.1258
         6760       22.1258
         6770       22.1258
         6780       22.1258
         6790       22.1258
         6800       22.1257
         6810       22.1257
         6820       22.1257
         6830       22.1257
         6840       22.1257
         6850       22.1257
         6860       22.1257
         6870       22.1257
         6880       22.1257
         6890       22.1256
         6900       22.1256
         6910       22.1256
         6920       22.1256
         6930       22.1256
         6940       22.1256
         6950       22.1256
         6960       22.1256
         6970       22.1256
         6980       22.1256
         6990       22.1255
         7000       22.1255
         7010       22.1255
         7020       22.1255
         7030       22.1255
         7040       22.1255
         7050       22.1255
         7060       22.1255
         7070       22.1255
         7080       22.1254
         7090       22.1254
         7100       22.1254
         7110       22.1254
         7120       22.1254
         7130       22.1254
         7140       22.1254
         7150       22.1254
         7160       22.1253
         7170       22.1253
         7180       22.1253
         7190       22.1253
         7200       22.1253
         7210       22.1253
         7220       22.1253
         7230       22.1253
         7240       22.1253
         7250       22.1252
         7260       22.1252
         7270       22.1252
         7280       22.1252
         7290       22.1252
         7300       22.1252
         7310       22.1252
         7320       22.1252
         7330       22.1251
         7340       22.1251
         7350       22.1251
         7360       22.1251
         7370       22.1251
         7380       22.1251
         7390       22.1251
         7400       22.1251
         7410        22.125
         7420        22.125
         7430        22.125
         7440        22.125
         7450        22.125
         7460        22.125
         7470        22.125
         7480       22.1249
         7490       22.1249
         7500       22.1249
         7510       22.1249
         7520       22.1249
         7530       22.1249
         7540       22.1249
         7550       22.1248
         7560       22.1248
         7570       22.1248
         7580       22.1248
         7590       22.1248
         7600       22.1248
         7610       22.1248
         7620       22.1248
         7630       22.1247
         7640       22.1247
         7650       22.1247
         7660       22.1247
         7670       22.1247
         7680       22.1247
         7690       22.1247
         7700       22.1246
         7710       22.1246
         7720       22.1246
         7730       22.1246
         7740       22.1246
         7750       22.1246
         7760       22.1245
         7770       22.1245
         7780       22.1245
         7790       22.1245
         7800       22.1245
         7810       22.1245
         7820       22.1245
         7830       22.1244
         7840       22.1244
         7850       22.1244
         7860       22.1244
         7870       22.1244
         7880       22.1244
         7890       22.1243
         7900       22.1243
         7910       22.1243
         7920       22.1243
         7930       22.1243
         7940       22.1243
         7950       22.1243
         7960       22.1242
         7970       22.1242
         7980       22.1242
         7990       22.1242
         8000       22.1242
         8010       22.1242
         8020       22.1241
         8030       22.1241
         8040       22.1241
         8050       22.1241
         8060       22.1241
         8070       22.1241
         8080        22.124
         8090        22.124
         8100        22.124
         8110        22.124
         8120        22.124
         8130        22.124
         8140       22.1239
         8150       22.1239
         8160       22.1239
         8170       22.1239
         8180       22.1239
         8190       22.1238
         8200       22.1238
         8210       22.1238
         8220       22.1238
         8230       22.1238
         8240       22.1238
         8250       22.1237
         8260       22.1237
         8270       22.1237
         8280       22.1237
         8290       22.1237
         8300       22.1237
         8310       22.1236
         8320       22.1236
         8330       22.1236
         8340       22.1236
         8350       22.1236
         8360       22.1235
         8370       22.1235
         8380       22.1235
         8390       22.1235
         8400       22.1235
         8410       22.1234
         8420       22.1234
         8430       22.1234
         8440       22.1234
         8450       22.1234
         8460       22.1233
         8470       22.1233
         8480       22.1233
         8490       22.1233
         8500       22.1233
         8510       22.1233
         8520       22.1232
         8530       22.1232
         8540       22.1232
         8550       22.1232
         8560       22.1232
         8570       22.1231
         8580       22.1231
         8590       22.1231
         8600       22.1231
         8610        22.123
         8620        22.123
         8630        22.123
         8640        22.123
         8650        22.123
         8660       22.1229
         8670       22.1229
         8680       22.1229
         8690       22.1229
         8700       22.1229
         8710       22.1228
         8720       22.1228
         8730       22.1228
         8740       22.1228
         8750       22.1228
         8760       22.1227
         8770       22.1227
         8780       22.1227
         8790       22.1227
         8800       22.1226
         8810       22.1226
         8820       22.1226
         8830       22.1226
         8840       22.1226
         8850       22.1225
         8860       22.1225
         8870       22.1225
         8880       22.1225
         8890       22.1224
         8900       22.1224
         8910       22.1224
         8920       22.1224
         8930       22.1224
         8940       22.1223
         8950       22.1223
         8960       22.1223
         8970       22.1223
         8980       22.1222
         8990       22.1222
         9000       22.1222
         9010       22.1222
         9020       22.1221
         9030       22.1221
         9040       22.1221
         9050       22.1221
         9060       22.1221
         9070        22.122
         9080        22.122
         9090        22.122
         9100        22.122
         9110       22.1219
         9120       22.1219
         9130       22.1219
         9140       22.1219
         9150       22.1218
         9160       22.1218
         9170       22.1218
         9180       22.1218
         9190       22.1217
         9200       22.1217
         9210       22.1217
         9220       22.1217
         9230       22.1216
         9240       22.1216
         9250       22.1216
         9260       22.1216
         9270       22.1215
         9280       22.1215
         9290       22.1215
         9300       22.1215
         9310       22.1214
         9320       22.1214
         9330       22.1214
         9340       22.1214
         9350       22.1213
         9360       22.1213
         9370       22.1213
         9380       22.1212
         9390       22.1212
         9400       22.1212
         9410       22.1212
         9420       22.1211
         9430       22.1211
         9440       22.1211
         9450       22.1211
         9460        22.121
         9470        22.121
         9480        22.121
         9490        22.121
         9500       22.1209
         9510       22.1209
         9520       22.1209
         9530       22.1208
         9540       22.1208
         9550       22.1208
         9560       22.1208
         9570       22.1207
         9580       22.1207
         9590       22.1207
         9600       22.1206
         9610       22.1206
         9620       22.1206
         9630       22.1206
         9640       22.1205
         9650       22.1205
         9660       22.1205
         9670       22.1204
         9680       22.1204
         9690       22.1204
         9700       22.1204
         9710       22.1203
         9720       22.1203
         9730       22.1203
         9740       22.1202
         9750       22.1202
         9760       22.1202
         9770       22.1202
         9780       22.1201
         9790       22.1201
         9800       22.1201
         9810         22.12
         9820         22.12
         9830         22.12
         9840       22.1199
         9850       22.1199
         9860       22.1199
         9870       22.1198
         9880       22.1198
         9890       22.1198
         9900       22.1198
         9910       22.1197
         9920       22.1197
         9930       22.1197
         9940       22.1196
         9950       22.1196
         9960       22.1196
         9970       22.1195
         9980       22.1195
         9990       22.1195
        10000       22.1194
        10010       22.1194
        10020       22.1194
        10030       22.1193
        10040       22.1193
        10050       22.1193
        10060       22.1192
        10070       22.1192
        10080       22.1192
        10090       22.1191
        10100       22.1191
        10110       22.1191
        10120        22.119
        10130        22.119
        10140        22.119
        10150       22.1189
        10160       22.1189
        10170       22.1189
        10180       22.1188
        10190       22.1188
        10200       22.1188
        10210       22.1187
        10220       22.1187
        10230       22.1187
        10240       22.1186
        10250       22.1186
        10260       22.1186
        10270       22.1185
        10280       22.1185
        10290       22.1185
        10300       22.1184
        10310       22.1184
        10320       22.1184
        10330       22.1183
        10340       22.1183
        10350       22.1183
        10360       22.1182
        10370       22.1182
        10380       22.1181
        10390       22.1181
        10400       22.1181
        10410        22.118
        10420        22.118
        10430        22.118
        10440       22.1179
        10450       22.1179
        10460       22.1179
        10470       22.1178
        10480       22.1178
        10490       22.1177
        10500       22.1177
        10510       22.1177
        10520       22.1176
        10530       22.1176
        10540       22.1176
        10550       22.1175
        10560       22.1175
        10570       22.1174
        10580       22.1174
        10590       22.1174
        10600       22.1173
        10610       22.1173
        10620       22.1173
        10630       22.1172
        10640       22.1172
        10650       22.1171
        10660       22.1171
        10670       22.1171
        10680        22.117
        10690        22.117
        10700       22.1169