28536.015003 
28537.837880 
28506.024342 
28365.712631 
28016.789652 
27293.746206 
26111.440272 
24435.935039 
22186.045728 
20561.982420 
18947.358914 
17362.259785 
15825.044676 
14350.725006 
12966.269925 
11690.244335 
10519.296272 
9462.972710 
8509.099265 
7652.970186 
6886.980803 
6098.327734 
5410.369190 
4809.099594 
4285.619574 
3831.382227 
3434.789612 
3087.591045 
2783.396630 
2423.269523 
2120.661896 
1865.122607 
1648.462558 
1463.978918 
1305.863405 
1169.690759 
1052.003039 
949.887610 
860.824797 
782.871373 
714.350496 
653.849289 
600.278877 
552.711614 
510.304387 
484.294152 
460.135050 
437.667044 
416.742905 
