0.000000e+00 	0.040000 
1.250000e+03 	0.040003 
2.500000e+03 	0.039958 
3.750000e+03 	0.039761 
5.000000e+03 	0.039272 
6.250000e+03 	0.038259 
7.500000e+03 	0.036601 
8.750000e+03 	0.034253 
1.000000e+04 	0.031099 
1.078692e+04 	0.028823 
1.157384e+04 	0.026559 
1.236076e+04 	0.024337 
1.314768e+04 	0.022183 
1.393460e+04 	0.020116 
1.472152e+04 	0.018175 
1.550844e+04 	0.016387 
1.629536e+04 	0.014745 
1.707066e+04 	0.013265 
1.784596e+04 	0.011928 
1.862126e+04 	0.010727 
1.939656e+04 	0.009654 
2.030115e+04 	0.008548 
2.120574e+04 	0.007584 
2.211033e+04 	0.006741 
2.301493e+04 	0.006007 
2.391952e+04 	0.005371 
2.482411e+04 	0.004815 
2.572870e+04 	0.004328 
2.663329e+04 	0.003902 
2.788329e+04 	0.003397 
2.913329e+04 	0.002973 
3.038329e+04 	0.002614 
3.163329e+04 	0.002311 
3.288329e+04 	0.002052 
3.413329e+04 	0.001830 
3.538329e+04 	0.001640 
3.663329e+04 	0.001475 
3.788329e+04 	0.001331 
3.913329e+04 	0.001207 
4.038329e+04 	0.001097 
4.163329e+04 	0.001001 
4.288329e+04 	0.000917 
4.413329e+04 	0.000841 
4.538329e+04 	0.000775 
4.663329e+04 	0.000715 
4.747497e+04 	0.000679 
4.831664e+04 	0.000645 
4.915832e+04 	0.000613 
5.000000e+04 	0.000584 
