# Probe 0 (0.05 0.05 0.005)
#       Probe             0
#        Time
           24       4.07555
           40       4.07555
           50       4.07555
           60       4.07555
           70       4.07555
           80       4.07555
           90       4.07555
          100       4.07555
          110       4.07555
          120       4.07555
          130       4.07555
          140       4.07555
          150       4.07555
          160       4.07555
          170       4.07555
          180       4.07555
          190       4.07555
          200       4.07555
          210       4.07555
          220       4.07555
          230       4.07555
          240       4.07555
          250       4.07555
          260       4.07555
          270       4.07555
          280       4.07555
          290       4.07555
          300       4.07555
          310       4.07555
          320       4.07555
          330       4.07555
          340       4.07555
          350       4.07555
          360       4.07555
          370       4.07555
          380       4.07555
          390       4.07555
          400       4.07555
          410       4.07555
          420       4.07555
          430       4.07555
          440       4.07555
          450       4.07555
          460       4.07555
          470       4.07555
          480       4.07555
          490       4.07555
          500       4.07555
          510       4.07555
          520       4.07555
          530       4.07555
          540       4.07555
          550       4.07555
          560       4.07555
          570       4.07555
          580       4.07555
          590       4.07555
          600       4.07555
          610       4.07555
          620       4.07555
          630       4.07555
          640       4.07555
          650       4.07555
          660       4.07555
          670       4.07555
          680       4.07555
          690       4.07555
          700       4.07555
          710       4.07555
          720       4.07555
          730       4.07555
          740       4.07555
          750       4.07555
          760       4.07555
          770       4.07555
          780       4.07555
          790       4.07555
          800       4.07555
          810       4.07555
          820       4.07555
          830       4.07555
          840       4.07555
          850       4.07555
          860       4.07555
          870       4.07555
          880       4.07555
          890       4.07555
          900       4.07555
          910       4.07555
          920       4.07555
          930       4.07555
          940       4.07555
          950       4.07555
          960       4.07555
          970       4.07555
          980       4.07555
          990       4.07555
         1000       4.07555
         1010       4.07555
         1020       4.07555
         1030       4.07555
         1040       4.07555
         1050       4.07555
         1060       4.07555
         1070       4.07555
         1080       4.07555
         1090       4.07555
         1100       4.07555
         1110       4.07555
         1120       4.07555
         1130       4.07555
         1140       4.07555
         1150       4.07555
         1160       4.07555
         1170       4.07555
         1180       4.07555
         1190       4.07555
         1200       4.07555
         1210       4.07555
         1220       4.07555
         1230       4.07555
         1240       4.07555
         1250       4.07555
         1260       4.07555
         1270       4.07555
         1280       4.07555
         1290       4.07555
         1300       4.07555
         1310       4.07555
         1320       4.07555
         1330       4.07555
         1340       4.07555
         1350       4.07555
         1360       4.07555
         1370       4.07555
         1380       4.07555
         1390       4.07555
         1400       4.07555
         1410       4.07555
         1420       4.07555
         1430       4.07555
         1440       4.07555
         1450       4.07555
         1460       4.07555
         1470       4.07555
         1480       4.07555
         1490       4.07555
         1500       4.07555
         1510       4.07555
         1520       4.07555
         1530       4.07555
         1540       4.07555
         1550       4.07555
         1560       4.07555
         1570       4.07555
         1580       4.07555
         1590       4.07555
         1600       4.07555
         1610       4.07555
         1620       4.07555
         1630       4.07555
         1640       4.07555
         1650       4.07555
         1660       4.07555
         1670       4.07555
         1680       4.07555
         1690       4.07555
         1700       4.07555
         1710       4.07555
         1720       4.07555
         1730       4.07555
         1740       4.07555
         1750       4.07555
         1760       4.07555
         1770       4.07555
         1780       4.07555
         1790       4.07555
         1800       4.07555
         1810       4.07555
         1820       4.07555
         1830       4.07555
         1840       4.07555
         1850       4.07555
         1860       4.07555
         1870       4.07555
         1880       4.07555
         1890       4.07555
         1900       4.07555
         1910       4.07555
         1920       4.07555
         1930       4.07555
         1940       4.07555
         1950       4.07555
         1960       4.07555
         1970       4.07555
         1980       4.07555
         1990       4.07555
         2000       4.07555
         2010       4.07555
         2020       4.07555
         2030       4.07555
         2040       4.07555
         2050       4.07555
         2060       4.07555
         2070       4.07555
         2080       4.07555
         2090       4.07555
         2100       4.07555
         2110       4.07555
         2120       4.07555
         2130       4.07555
         2140       4.07555
         2150       4.07555
         2160       4.07555
         2170       4.07555
         2180       4.07555
         2190       4.07555
         2200       4.07555
         2210       4.07555
         2220       4.07555
         2230       4.07555
         2240       4.07555
         2250       4.07555
         2260       4.07555
         2270       4.07555
         2280       4.07555
         2290       4.07555
         2300       4.07555
         2310       4.07555
         2320       4.07555
         2330       4.07555
         2340       4.07555
         2350       4.07555
         2360       4.07555
         2370       4.07555
         2380       4.07555
         2390       4.07555
         2400       4.07555
         2410       4.07555
         2420       4.07555
         2430       4.07555
         2440       4.07555
         2450       4.07555
         2460       4.07555
         2470       4.07555
         2480       4.07555
         2490       4.07555
         2500       4.07555
         2510       4.07555
         2520       4.07555
         2530       4.07555
         2540       4.07555
         2550       4.07555
         2560       4.07555
         2570       4.07555
         2580       4.07555
         2590       4.07555
         2600       4.07555
         2610       4.07555
         2620       4.07555
         2630       4.07555
         2640       4.07555
         2650       4.07555
         2660       4.07555
         2670       4.07555
         2680       4.07555
         2690       4.07555
         2700       4.07555
         2710       4.07555
         2720       4.07555
         2730       4.07555
         2740       4.07555
         2750       4.07555
         2760       4.07555
         2770       4.07555
         2780       4.07555
         2790       4.07555
         2800       4.07555
         2810       4.07555
         2820       4.07555
         2830       4.07555
         2840       4.07555
         2850       4.07555
         2860       4.07555
         2870       4.07555
         2880       4.07555
         2890       4.07555
         2900       4.07555
         2910       4.07555
         2920       4.07555
         2930       4.07555
         2940       4.07555
         2950       4.07555
         2960       4.07555
         2970       4.07555
         2980       4.07555
         2990       4.07555
         3000       4.07555
         3010       4.07555
         3020       4.07555
         3030       4.07555
         3040       4.07555
         3050       4.07555
         3060       4.07555
         3070       4.07555
         3080       4.07555
         3090       4.07555
         3100       4.07555
         3110       4.07555
         3120       4.07555
         3130       4.07555
         3140       4.07555
         3150       4.07555
         3160       4.07554
         3170       4.07554
         3180       4.07554
         3190       4.07554
         3200       4.07554
         3210       4.07554
         3220       4.07554
         3230       4.07554
         3240       4.07554
         3250       4.07554
         3260       4.07554
         3270       4.07554
         3280       4.07554
         3290       4.07554
         3300       4.07554
         3310       4.07554
         3320       4.07554
         3330       4.07554
         3340       4.07554
         3350       4.07554
         3360       4.07554
         3370       4.07554
         3380       4.07554
         3390       4.07554
         3400       4.07554
         3410       4.07554
         3420       4.07554
         3430       4.07554
         3440       4.07554
         3450       4.07554
         3460       4.07554
         3470       4.07554
         3480       4.07554
         3490       4.07554
         3500       4.07554
         3510       4.07554
         3520       4.07554
         3530       4.07554
         3540       4.07554
         3550       4.07554
         3560       4.07554
         3570       4.07554
         3580       4.07554
         3590       4.07554
         3600       4.07554
         3610       4.07554
         3620       4.07554
         3630       4.07554
         3640       4.07554
         3650       4.07554
         3660       4.07554
         3670       4.07554
         3680       4.07554
         3690       4.07554
         3700       4.07554
         3710       4.07554
         3720       4.07554
         3730       4.07554
         3740       4.07554
         3750       4.07554
         3760       4.07554
         3770       4.07554
         3780       4.07554
         3790       4.07554
         3800       4.07554
         3810       4.07554
         3820       4.07554
         3830       4.07554
         3840       4.07554
         3850       4.07554
         3860       4.07554
         3870       4.07554
         3880       4.07554
         3890       4.07554
         3900       4.07554
         3910       4.07554
         3920       4.07554
         3930       4.07554
         3940       4.07554
         3950       4.07554
         3960       4.07554
         3970       4.07554
         3980       4.07554
         3990       4.07554
         4000       4.07554
         4010       4.07554
         4020       4.07554
         4030       4.07554
         4040       4.07554
         4050       4.07554
         4060       4.07554
         4070       4.07554
         4080       4.07554
         4090       4.07554
         4100       4.07554
         4110       4.07554
         4120       4.07554
         4130       4.07554
         4140       4.07554
         4150       4.07554
         4160       4.07554
         4170       4.07554
         4180       4.07554
         4190       4.07554
         4200       4.07553
         4210       4.07553
         4220       4.07553
         4230       4.07553
         4240       4.07553
         4250       4.07553
         4260       4.07553
         4270       4.07553
         4280       4.07553
         4290       4.07553
         4300       4.07553
         4310       4.07553
         4320       4.07553
         4330       4.07553
         4340       4.07553
         4350       4.07553
         4360       4.07553
         4370       4.07553
         4380       4.07553
         4390       4.07553
         4400       4.07553
         4410       4.07553
         4420       4.07553
         4430       4.07553
         4440       4.07553
         4450       4.07553
         4460       4.07553
         4470       4.07553
         4480       4.07553
         4490       4.07553
         4500       4.07553
         4510       4.07553
         4520       4.07553
         4530       4.07553
         4540       4.07553
         4550       4.07553
         4560       4.07553
         4570       4.07553
         4580       4.07553
         4590       4.07553
         4600       4.07553
         4610       4.07553
         4620       4.07553
         4630       4.07553
         4640       4.07553
         4650       4.07553
         4660       4.07553
         4670       4.07553
         4680       4.07553
         4690       4.07553
         4700       4.07553
         4710       4.07553
         4720       4.07553
         4730       4.07553
         4740       4.07553
         4750       4.07553
         4760       4.07553
         4770       4.07553
         4780       4.07552
         4790       4.07552
         4800       4.07552
         4810       4.07552
         4820       4.07552
         4830       4.07552
         4840       4.07552
         4850       4.07552
         4860       4.07552
         4870       4.07552
         4880       4.07552
         4890       4.07552
         4900       4.07552
         4910       4.07552
         4920       4.07552
         4930       4.07552
         4940       4.07552
         4950       4.07552
         4960       4.07552
         4970       4.07552
         4980       4.07552
         4990       4.07552
         5000       4.07552
         5010       4.07552
         5020       4.07552
         5030       4.07552
         5040       4.07552
         5050       4.07552
         5060       4.07552
         5070       4.07552
         5080       4.07552
         5090       4.07552
         5100       4.07552
         5110       4.07552
         5120       4.07552
         5130       4.07552
         5140       4.07552
         5150       4.07552
         5160       4.07552
         5170       4.07552
         5180       4.07552
         5190       4.07552
         5200       4.07551
         5210       4.07551
         5220       4.07551
         5230       4.07551
         5240       4.07551
         5250       4.07551
         5260       4.07551
         5270       4.07551
         5280       4.07551
         5290       4.07551
         5300       4.07551
         5310       4.07551
         5320       4.07551
         5330       4.07551
         5340       4.07551
         5350       4.07551
         5360       4.07551
         5370       4.07551
         5380       4.07551
         5390       4.07551
         5400       4.07551
         5410       4.07551
         5420       4.07551
         5430       4.07551
         5440       4.07551
         5450       4.07551
         5460       4.07551
         5470       4.07551
         5480       4.07551
         5490       4.07551
         5500       4.07551
         5510       4.07551
         5520       4.07551
         5530       4.07551
         5540        4.0755
         5550        4.0755
         5560        4.0755
         5570        4.0755
         5580        4.0755
         5590        4.0755
         5600        4.0755
         5610        4.0755
         5620        4.0755
         5630        4.0755
         5640        4.0755
         5650        4.0755
         5660        4.0755
         5670        4.0755
         5680        4.0755
         5690        4.0755
         5700        4.0755
         5710        4.0755
         5720        4.0755
         5730        4.0755
         5740        4.0755
         5750        4.0755
         5760        4.0755
         5770        4.0755
         5780        4.0755
         5790        4.0755
         5800        4.0755
         5810        4.0755
         5820        4.0755
         5830       4.07549
         5840       4.07549
         5850       4.07549
         5860       4.07549
         5870       4.07549
         5880       4.07549
         5890       4.07549
         5900       4.07549
         5910       4.07549
         5920       4.07549
         5930       4.07549
         5940       4.07549
         5950       4.07549
         5960       4.07549
         5970       4.07549
         5980       4.07549
         5990       4.07549
         6000       4.07549
         6010       4.07549
         6020       4.07549
         6030       4.07549
         6040       4.07549
         6050       4.07549
         6060       4.07549
         6070       4.07549
         6080       4.07548
         6090       4.07548
         6100       4.07548
         6110       4.07548
         6120       4.07548
         6130       4.07548
         6140       4.07548
         6150       4.07548
         6160       4.07548
         6170       4.07548
         6180       4.07548
         6190       4.07548
         6200       4.07548
         6210       4.07548
         6220       4.07548
         6230       4.07548
         6240       4.07548
         6250       4.07548
         6260       4.07548
         6270       4.07548
         6280       4.07548
         6290       4.07548
         6300       4.07547
         6310       4.07547
         6320       4.07547
         6330       4.07547
         6340       4.07547
         6350       4.07547
         6360       4.07547
         6370       4.07547
         6380       4.07547
         6390       4.07547
         6400       4.07547
         6410       4.07547
         6420       4.07547
         6430       4.07547
         6440       4.07547
         6450       4.07547
         6460       4.07547
         6470       4.07547
         6480       4.07547
         6490       4.07547
         6500       4.07546
         6510       4.07546
         6520       4.07546
         6530       4.07546
         6540       4.07546
         6550       4.07546
         6560       4.07546
         6570       4.07546
         6580       4.07546
         6590       4.07546
         6600       4.07546
         6610       4.07546
         6620       4.07546
         6630       4.07546
         6640       4.07546
         6650       4.07546
         6660       4.07546
         6670       4.07546
         6680       4.07545
         6690       4.07545
         6700       4.07545
         6710       4.07545
         6720       4.07545
         6730       4.07545
         6740       4.07545
         6750       4.07545
         6760       4.07545
         6770       4.07545
         6780       4.07545
         6790       4.07545
         6800       4.07545
         6810       4.07545
         6820       4.07545
         6830       4.07545
         6840       4.07545
         6850       4.07544
         6860       4.07544
         6870       4.07544
         6880       4.07544
         6890       4.07544
         6900       4.07544
         6910       4.07544
         6920       4.07544
         6930       4.07544
         6940       4.07544
         6950       4.07544
         6960       4.07544
         6970       4.07544
         6980       4.07544
         6990       4.07544
         7000       4.07544
         7010       4.07543
         7020       4.07543
         7030       4.07543
         7040       4.07543
         7050       4.07543
         7060       4.07543
         7070       4.07543
         7080       4.07543
         7090       4.07543
         7100       4.07543
         7110       4.07543
         7120       4.07543
         7130       4.07543
         7140       4.07543
         7150       4.07543
         7160       4.07542
         7170       4.07542
         7180       4.07542
         7190       4.07542
         7200       4.07542
         7210       4.07542
         7220       4.07542
         7230       4.07542
         7240       4.07542
         7250       4.07542
         7260       4.07542
         7270       4.07542
         7280       4.07542
         7290       4.07542
         7300       4.07541
         7310       4.07541
         7320       4.07541
         7330       4.07541
         7340       4.07541
         7350       4.07541
         7360       4.07541
         7370       4.07541
         7380       4.07541
         7390       4.07541
         7400       4.07541
         7410       4.07541
         7420       4.07541
         7430        4.0754
         7440        4.0754
         7450        4.0754
         7460        4.0754
         7470        4.0754
         7480        4.0754
         7490        4.0754
         7500        4.0754
         7510        4.0754
         7520        4.0754
         7530        4.0754
         7540        4.0754
         7550       4.07539
         7560       4.07539
         7570       4.07539
         7580       4.07539
         7590       4.07539
         7600       4.07539
         7610       4.07539
         7620       4.07539
         7630       4.07539
         7640       4.07539
         7650       4.07539
         7660       4.07539
         7670       4.07538
         7680       4.07538
         7690       4.07538
         7700       4.07538
         7710       4.07538
         7720       4.07538
         7730       4.07538
         7740       4.07538
         7750       4.07538
         7760       4.07538
         7770       4.07538
         7780       4.07538
         7790       4.07537
         7800       4.07537
         7810       4.07537
         7820       4.07537
         7830       4.07537
         7840       4.07537
         7850       4.07537
         7860       4.07537
         7870       4.07537
         7880       4.07537
         7890       4.07537
         7900       4.07536
         7910       4.07536
         7920       4.07536
         7930       4.07536
         7940       4.07536
         7950       4.07536
         7960       4.07536
         7970       4.07536
         7980       4.07536
         7990       4.07536
         8000       4.07535
         8010       4.07535
         8020       4.07535
         8030       4.07535
         8040       4.07535
         8050       4.07535
         8060       4.07535
         8070       4.07535
         8080       4.07535
         8090       4.07535
         8100       4.07534
         8110       4.07534
         8120       4.07534
         8130       4.07534
         8140       4.07534
         8150       4.07534
         8160       4.07534
         8170       4.07534
         8180       4.07534
         8190       4.07534
         8200       4.07533
         8210       4.07533
         8220       4.07533
         8230       4.07533
         8240       4.07533
         8250       4.07533
         8260       4.07533
         8270       4.07533
         8280       4.07533
         8290       4.07532
         8300       4.07532
         8310       4.07532
         8320       4.07532
         8330       4.07532
         8340       4.07532
         8350       4.07532
         8360       4.07532
         8370       4.07532
         8380       4.07531
         8390       4.07531
         8400       4.07531
         8410       4.07531
         8420       4.07531
         8430       4.07531
         8440       4.07531
         8450       4.07531
         8460       4.07531
         8470        4.0753
         8480        4.0753
         8490        4.0753
         8500        4.0753
         8510        4.0753
         8520        4.0753
         8530        4.0753
         8540        4.0753
         8550        4.0753
         8560       4.07529
         8570       4.07529
         8580       4.07529
         8590       4.07529
         8600       4.07529
         8610       4.07529
         8620       4.07529
         8630       4.07529
         8640       4.07528
         8650       4.07528
         8660       4.07528
         8670       4.07528
         8680       4.07528
         8690       4.07528
         8700       4.07528
         8710       4.07528
         8720       4.07527
         8730       4.07527
         8740       4.07527
         8750       4.07527
         8760       4.07527
         8770       4.07527
         8780       4.07527
         8790       4.07527
         8800       4.07526
         8810       4.07526
         8820       4.07526
         8830       4.07526
         8840       4.07526
         8850       4.07526
         8860       4.07526
         8870       4.07525
         8880       4.07525
         8890       4.07525
         8900       4.07525
         8910       4.07525
         8920       4.07525
         8930       4.07525
         8940       4.07525
         8950       4.07524
         8960       4.07524
         8970       4.07524
         8980       4.07524
         8990       4.07524
         9000       4.07524
         9010       4.07524
         9020       4.07523
         9030       4.07523
         9040       4.07523
         9050       4.07523
         9060       4.07523
         9070       4.07523
         9080       4.07523
         9090       4.07522
         9100       4.07522
         9110       4.07522
         9120       4.07522
         9130       4.07522
         9140       4.07522
         9150       4.07522
         9160       4.07521
         9170       4.07521
         9180       4.07521
         9190       4.07521
         9200       4.07521
         9210       4.07521
         9220       4.07521
         9230        4.0752
         9240        4.0752
         9250        4.0752
         9260        4.0752
         9270        4.0752
         9280        4.0752
         9290       4.07519
         9300       4.07519
         9310       4.07519
         9320       4.07519
         9330       4.07519
         9340       4.07519
         9350       4.07519
         9360       4.07518
         9370       4.07518
         9380       4.07518
         9390       4.07518
         9400       4.07518
         9410       4.07518
         9420       4.07517
         9430       4.07517
         9440       4.07517
         9450       4.07517
         9460       4.07517
         9470       4.07517
         9480       4.07516
         9490       4.07516
         9500       4.07516
         9510       4.07516
         9520       4.07516
         9530       4.07516
         9540       4.07515
         9550       4.07515
         9560       4.07515
         9570       4.07515
         9580       4.07515
         9590       4.07515
         9600       4.07514
         9610       4.07514
         9620       4.07514
         9630       4.07514
         9640       4.07514
         9650       4.07514
         9660       4.07513
         9670       4.07513
         9680       4.07513
         9690       4.07513
         9700       4.07513
         9710       4.07513
         9720       4.07512
         9730       4.07512
         9740       4.07512
         9750       4.07512
         9760       4.07512
         9770       4.07512
         9780       4.07511
         9790       4.07511
         9800       4.07511
         9810       4.07511
         9820       4.07511
         9830        4.0751
         9840        4.0751
         9850        4.0751
         9860        4.0751
         9870        4.0751
         9880        4.0751
         9890       4.07509
         9900       4.07509
         9910       4.07509
         9920       4.07509
         9930       4.07509
         9940       4.07508
         9950       4.07508
         9960       4.07508
         9970       4.07508
         9980       4.07508
         9990       4.07507
        10000       4.07507
        10010       4.07507
        10020       4.07507
        10030       4.07507
        10040       4.07507
        10050       4.07506
        10060       4.07506
        10070       4.07506
        10080       4.07506
        10090       4.07506
        10100       4.07505
        10110       4.07505
        10120       4.07505
        10130       4.07505
        10140       4.07505
        10150       4.07504
        10160       4.07504
        10170       4.07504
        10180       4.07504
        10190       4.07504
        10200       4.07503
        10210       4.07503
        10220       4.07503
        10230       4.07503
        10240       4.07503
        10250       4.07502
        10260       4.07502
        10270       4.07502
        10280       4.07502
        10290       4.07502
        10300       4.07501
        10310       4.07501
        10320       4.07501
        10330       4.07501
        10340         4.075
        10350         4.075
        10360         4.075
        10370         4.075
        10380         4.075
        10390       4.07499
        10400       4.07499
        10410       4.07499
        10420       4.07499
        10430       4.07499
        10440       4.07498
        10450       4.07498
        10460       4.07498
        10470       4.07498
        10480       4.07497
        10490       4.07497
        10500       4.07497
        10510       4.07497
        10520       4.07497
        10530       4.07496
        10540       4.07496
        10550       4.07496
        10560       4.07496
        10570       4.07495
        10580       4.07495
        10590       4.07495
        10600       4.07495
        10610       4.07495
        10620       4.07494
        10630       4.07494
        10640       4.07494
        10650       4.07494
        10660       4.07493
        10670       4.07493
        10680       4.07493
        10690       4.07493
        10700       4.07492