# Probe 0 (0.05 0.05 0.005)
#       Probe             0
#        Time
           24       11900.1
           40       11900.1
           50       11900.1
           60       11900.1
           70       11900.1
           80       11900.1
           90       11900.1
          100       11900.1
          110       11900.1
          120       11900.1
          130       11900.1
          140       11900.1
          150       11900.1
          160       11900.1
          170       11900.1
          180       11900.1
          190       11900.1
          200       11900.1
          210       11900.1
          220       11900.1
          230       11900.1
          240       11900.1
          250       11900.1
          260       11900.1
          270       11900.1
          280       11900.1
          290       11900.1
          300       11900.1
          310       11900.1
          320       11900.1
          330       11900.1
          340       11900.1
          350       11900.1
          360       11900.1
          370       11900.1
          380       11900.1
          390       11900.1
          400       11900.1
          410       11900.1
          420       11900.1
          430       11900.1
          440       11900.1
          450       11900.1
          460       11900.1
          470       11900.1
          480       11900.1
          490       11900.1
          500       11900.1
          510       11900.1
          520       11900.1
          530       11900.1
          540       11900.1
          550       11900.1
          560       11900.1
          570       11900.1
          580       11900.1
          590       11900.1
          600       11900.1
          610       11900.1
          620       11900.1
          630       11900.1
          640       11900.1
          650       11900.1
          660       11900.1
          670       11900.1
          680       11900.1
          690       11900.1
          700       11900.1
          710       11900.1
          720       11900.1
          730       11900.1
          740       11900.1
          750       11900.1
          760       11900.1
          770       11900.1
          780       11900.1
          790       11900.1
          800       11900.1
          810       11900.1
          820       11900.1
          830       11900.1
          840       11900.1
          850       11900.1
          860       11900.1
          870       11900.1
          880       11900.1
          890       11900.1
          900       11900.1
          910       11900.1
          920       11900.1
          930       11900.1
          940       11900.1
          950       11900.1
          960       11900.1
          970       11900.1
          980       11900.1
          990       11900.1
         1000       11900.1
         1010       11900.1
         1020       11900.1
         1030       11900.1
         1040       11900.1
         1050       11900.1
         1060       11900.1
         1070       11900.1
         1080       11900.1
         1090       11900.1
         1100       11900.1
         1110       11900.1
         1120       11900.1
         1130       11900.1
         1140       11900.1
         1150       11900.1
         1160       11900.1
         1170       11900.1
         1180       11900.1
         1190       11900.1
         1200       11900.1
         1210       11900.1
         1220       11900.1
         1230       11900.1
         1240       11900.1
         1250       11900.1
         1260       11900.1
         1270       11900.1
         1280       11900.1
         1290       11900.1
         1300       11900.1
         1310       11900.1
         1320       11900.1
         1330       11900.1
         1340       11900.1
         1350       11900.1
         1360       11900.1
         1370       11900.1
         1380       11900.1
         1390       11900.1
         1400       11900.1
         1410       11900.1
         1420       11900.1
         1430       11900.1
         1440       11900.1
         1450       11900.1
         1460       11900.1
         1470       11900.1
         1480       11900.1
         1490       11900.1
         1500       11900.1
         1510       11900.1
         1520       11900.1
         1530       11900.1
         1540       11900.1
         1550       11900.1
         1560       11900.1
         1570       11900.1
         1580       11900.1
         1590       11900.1
         1600       11900.1
         1610       11900.1
         1620       11900.1
         1630       11900.1
         1640       11900.1
         1650       11900.1
         1660       11900.1
         1670       11900.1
         1680       11900.1
         1690       11900.1
         1700       11900.1
         1710       11900.1
         1720       11900.1
         1730       11900.1
         1740       11900.1
         1750       11900.1
         1760       11900.1
         1770       11900.1
         1780       11900.1
         1790       11900.1
         1800       11900.1
         1810       11900.1
         1820       11900.1
         1830       11900.1
         1840       11900.1
         1850       11900.1
         1860       11900.1
         1870       11900.1
         1880       11900.1
         1890       11900.1
         1900       11900.1
         1910       11900.1
         1920       11900.1
         1930       11900.1
         1940       11900.1
         1950       11900.1
         1960       11900.1
         1970       11900.1
         1980       11900.1
         1990       11900.1
         2000       11900.1
         2010       11900.1
         2020       11900.1
         2030       11900.1
         2040       11900.1
         2050       11900.1
         2060       11900.1
         2070       11900.1
         2080       11900.1
         2090         11900
         2100         11900
         2110         11900
         2120         11900
         2130         11900
         2140         11900
         2150         11900
         2160         11900
         2170         11900
         2180         11900
         2190         11900
         2200         11900
         2210         11900
         2220         11900
         2230         11900
         2240         11900
         2250         11900
         2260         11900
         2270         11900
         2280         11900
         2290         11900
         2300         11900
         2310         11900
         2320         11900
         2330         11900
         2340         11900
         2350         11900
         2360         11900
         2370         11900
         2380         11900
         2390         11900
         2400         11900
         2410         11900
         2420         11900
         2430         11900
         2440         11900
         2450         11900
         2460         11900
         2470         11900
         2480         11900
         2490         11900
         2500         11900
         2510         11900
         2520         11900
         2530         11900
         2540         11900
         2550         11900
         2560         11900
         2570         11900
         2580         11900
         2590         11900
         2600         11900
         2610         11900
         2620         11900
         2630         11900
         2640         11900
         2650         11900
         2660         11900
         2670         11900
         2680         11900
         2690         11900
         2700         11900
         2710         11900
         2720         11900
         2730         11900
         2740         11900
         2750         11900
         2760         11900
         2770         11900
         2780         11900
         2790         11900
         2800         11900
         2810         11900
         2820         11900
         2830         11900
         2840         11900
         2850         11900
         2860         11900
         2870         11900
         2880         11900
         2890         11900
         2900         11900
         2910         11900
         2920         11900
         2930         11900
         2940         11900
         2950         11900
         2960         11900
         2970         11900
         2980         11900
         2990         11900
         3000         11900
         3010         11900
         3020         11900
         3030         11900
         3040         11900
         3050         11900
         3060         11900
         3070         11900
         3080         11900
         3090         11900
         3100         11900
         3110         11900
         3120         11900
         3130         11900
         3140       11899.9
         3150       11899.9
         3160       11899.9
         3170       11899.9
         3180       11899.9
         3190       11899.9
         3200       11899.9
         3210       11899.9
         3220       11899.9
         3230       11899.9
         3240       11899.9
         3250       11899.9
         3260       11899.9
         3270       11899.9
         3280       11899.9
         3290       11899.9
         3300       11899.9
         3310       11899.9
         3320       11899.9
         3330       11899.9
         3340       11899.9
         3350       11899.9
         3360       11899.9
         3370       11899.9
         3380       11899.9
         3390       11899.9
         3400       11899.9
         3410       11899.9
         3420       11899.9
         3430       11899.9
         3440       11899.9
         3450       11899.9
         3460       11899.9
         3470       11899.9
         3480       11899.9
         3490       11899.9
         3500       11899.9
         3510       11899.9
         3520       11899.9
         3530       11899.9
         3540       11899.9
         3550       11899.9
         3560       11899.9
         3570       11899.9
         3580       11899.9
         3590       11899.9
         3600       11899.9
         3610       11899.9
         3620       11899.9
         3630       11899.8
         3640       11899.8
         3650       11899.8
         3660       11899.8
         3670       11899.8
         3680       11899.8
         3690       11899.8
         3700       11899.8
         3710       11899.8
         3720       11899.8
         3730       11899.8
         3740       11899.8
         3750       11899.8
         3760       11899.8
         3770       11899.8
         3780       11899.8
         3790       11899.8
         3800       11899.8
         3810       11899.8
         3820       11899.8
         3830       11899.8
         3840       11899.8
         3850       11899.8
         3860       11899.8
         3870       11899.8
         3880       11899.8
         3890       11899.8
         3900       11899.8
         3910       11899.8
         3920       11899.8
         3930       11899.8
         3940       11899.8
         3950       11899.8
         3960       11899.8
         3970       11899.8
         3980       11899.7
         3990       11899.7
         4000       11899.7
         4010       11899.7
         4020       11899.7
         4030       11899.7
         4040       11899.7
         4050       11899.7
         4060       11899.7
         4070       11899.7
         4080       11899.7
         4090       11899.7
         4100       11899.7
         4110       11899.7
         4120       11899.7
         4130       11899.7
         4140       11899.7
         4150       11899.7
         4160       11899.7
         4170       11899.7
         4180       11899.7
         4190       11899.7
         4200       11899.7
         4210       11899.7
         4220       11899.7
         4230       11899.7
         4240       11899.7
         4250       11899.7
         4260       11899.6
         4270       11899.6
         4280       11899.6
         4290       11899.6
         4300       11899.6
         4310       11899.6
         4320       11899.6
         4330       11899.6
         4340       11899.6
         4350       11899.6
         4360       11899.6
         4370       11899.6
         4380       11899.6
         4390       11899.6
         4400       11899.6
         4410       11899.6
         4420       11899.6
         4430       11899.6
         4440       11899.6
         4450       11899.6
         4460       11899.6
         4470       11899.6
         4480       11899.6
         4490       11899.5
         4500       11899.5
         4510       11899.5
         4520       11899.5
         4530       11899.5
         4540       11899.5
         4550       11899.5
         4560       11899.5
         4570       11899.5
         4580       11899.5
         4590       11899.5
         4600       11899.5
         4610       11899.5
         4620       11899.5
         4630       11899.5
         4640       11899.5
         4650       11899.5
         4660       11899.5
         4670       11899.5
         4680       11899.5
         4690       11899.4
         4700       11899.4
         4710       11899.4
         4720       11899.4
         4730       11899.4
         4740       11899.4
         4750       11899.4
         4760       11899.4
         4770       11899.4
         4780       11899.4
         4790       11899.4
         4800       11899.4
         4810       11899.4
         4820       11899.4
         4830       11899.4
         4840       11899.4
         4850       11899.4
         4860       11899.3
         4870       11899.3
         4880       11899.3
         4890       11899.3
         4900       11899.3
         4910       11899.3
         4920       11899.3
         4930       11899.3
         4940       11899.3
         4950       11899.3
         4960       11899.3
         4970       11899.3
         4980       11899.3
         4990       11899.3
         5000       11899.3
         5010       11899.3
         5020       11899.2
         5030       11899.2
         5040       11899.2
         5050       11899.2
         5060       11899.2
         5070       11899.2
         5080       11899.2
         5090       11899.2
         5100       11899.2
         5110       11899.2
         5120       11899.2
         5130       11899.2
         5140       11899.2
         5150       11899.2
         5160       11899.2
         5170       11899.1
         5180       11899.1
         5190       11899.1
         5200       11899.1
         5210       11899.1
         5220       11899.1
         5230       11899.1
         5240       11899.1
         5250       11899.1
         5260       11899.1
         5270       11899.1
         5280       11899.1
         5290       11899.1
         5300         11899
         5310         11899
         5320         11899
         5330         11899
         5340         11899
         5350         11899
         5360         11899
         5370         11899
         5380         11899
         5390         11899
         5400         11899
         5410         11899
         5420         11899
         5430       11898.9
         5440       11898.9
         5450       11898.9
         5460       11898.9
         5470       11898.9
         5480       11898.9
         5490       11898.9
         5500       11898.9
         5510       11898.9
         5520       11898.9
         5530       11898.9
         5540       11898.8
         5550       11898.8
         5560       11898.8
         5570       11898.8
         5580       11898.8
         5590       11898.8
         5600       11898.8
         5610       11898.8
         5620       11898.8
         5630       11898.8
         5640       11898.8
         5650       11898.7
         5660       11898.7
         5670       11898.7
         5680       11898.7
         5690       11898.7
         5700       11898.7
         5710       11898.7
         5720       11898.7
         5730       11898.7
         5740       11898.7
         5750       11898.6
         5760       11898.6
         5770       11898.6
         5780       11898.6
         5790       11898.6
         5800       11898.6
         5810       11898.6
         5820       11898.6
         5830       11898.6
         5840       11898.6
         5850       11898.5
         5860       11898.5
         5870       11898.5
         5880       11898.5
         5890       11898.5
         5900       11898.5
         5910       11898.5
         5920       11898.5
         5930       11898.5
         5940       11898.5
         5950       11898.4
         5960       11898.4
         5970       11898.4
         5980       11898.4
         5990       11898.4
         6000       11898.4
         6010       11898.4
         6020       11898.4
         6030       11898.4
         6040       11898.3
         6050       11898.3
         6060       11898.3
         6070       11898.3
         6080       11898.3
         6090       11898.3
         6100       11898.3
         6110       11898.3
         6120       11898.2
         6130       11898.2
         6140       11898.2
         6150       11898.2
         6160       11898.2
         6170       11898.2
         6180       11898.2
         6190       11898.2
         6200       11898.1
         6210       11898.1
         6220       11898.1
         6230       11898.1
         6240       11898.1
         6250       11898.1
         6260       11898.1
         6270       11898.1
         6280         11898
         6290         11898
         6300         11898
         6310         11898
         6320         11898
         6330         11898
         6340         11898
         6350         11898
         6360       11897.9
         6370       11897.9
         6380       11897.9
         6390       11897.9
         6400       11897.9
         6410       11897.9
         6420       11897.9
         6430       11897.8
         6440       11897.8
         6450       11897.8
         6460       11897.8
         6470       11897.8
         6480       11897.8
         6490       11897.8
         6500       11897.7
         6510       11897.7
         6520       11897.7
         6530       11897.7
         6540       11897.7
         6550       11897.7
         6560       11897.7
         6570       11897.6
         6580       11897.6
         6590       11897.6
         6600       11897.6
         6610       11897.6
         6620       11897.6
         6630       11897.6
         6640       11897.5
         6650       11897.5
         6660       11897.5
         6670       11897.5
         6680       11897.5
         6690       11897.5
         6700       11897.4
         6710       11897.4
         6720       11897.4
         6730       11897.4
         6740       11897.4
         6750       11897.4
         6760       11897.4
         6770       11897.3
         6780       11897.3
         6790       11897.3
         6800       11897.3
         6810       11897.3
         6820       11897.3
         6830       11897.2
         6840       11897.2
         6850       11897.2
         6860       11897.2
         6870       11897.2
         6880       11897.2
         6890       11897.1
         6900       11897.1
         6910       11897.1
         6920       11897.1
         6930       11897.1
         6940         11897
         6950         11897
         6960         11897
         6970         11897
         6980         11897
         6990         11897
         7000       11896.9
         7010       11896.9
         7020       11896.9
         7030       11896.9
         7040       11896.9
         7050       11896.9
         7060       11896.8
         7070       11896.8
         7080       11896.8
         7090       11896.8
         7100       11896.8
         7110       11896.7
         7120       11896.7
         7130       11896.7
         7140       11896.7
         7150       11896.7
         7160       11896.6
         7170       11896.6
         7180       11896.6
         7190       11896.6
         7200       11896.6
         7210       11896.5
         7220       11896.5
         7230       11896.5
         7240       11896.5
         7250       11896.5
         7260       11896.5
         7270       11896.4
         7280       11896.4
         7290       11896.4
         7300       11896.4
         7310       11896.3
         7320       11896.3
         7330       11896.3
         7340       11896.3
         7350       11896.3
         7360       11896.2
         7370       11896.2
         7380       11896.2
         7390       11896.2
         7400       11896.2
         7410       11896.1
         7420       11896.1
         7430       11896.1
         7440       11896.1
         7450       11896.1
         7460         11896
         7470         11896
         7480         11896
         7490         11896
         7500       11895.9
         7510       11895.9
         7520       11895.9
         7530       11895.9
         7540       11895.9
         7550       11895.8
         7560       11895.8
         7570       11895.8
         7580       11895.8
         7590       11895.7
         7600       11895.7
         7610       11895.7
         7620       11895.7
         7630       11895.7
         7640       11895.6
         7650       11895.6
         7660       11895.6
         7670       11895.6
         7680       11895.5
         7690       11895.5
         7700       11895.5
         7710       11895.5
         7720       11895.4
         7730       11895.4
         7740       11895.4
         7750       11895.4
         7760       11895.3
         7770       11895.3
         7780       11895.3
         7790       11895.3
         7800       11895.2
         7810       11895.2
         7820       11895.2
         7830       11895.2
         7840       11895.1
         7850       11895.1
         7860       11895.1
         7870       11895.1
         7880         11895
         7890         11895
         7900         11895
         7910         11895
         7920       11894.9
         7930       11894.9
         7940       11894.9
         7950       11894.9
         7960       11894.8
         7970       11894.8
         7980       11894.8
         7990       11894.8
         8000       11894.7
         8010       11894.7
         8020       11894.7
         8030       11894.6
         8040       11894.6
         8050       11894.6
         8060       11894.6
         8070       11894.5
         8080       11894.5
         8090       11894.5
         8100       11894.5
         8110       11894.4
         8120       11894.4
         8130       11894.4
         8140       11894.3
         8150       11894.3
         8160       11894.3
         8170       11894.3
         8180       11894.2
         8190       11894.2
         8200       11894.2
         8210       11894.1
         8220       11894.1
         8230       11894.1
         8240       11894.1
         8250         11894
         8260         11894
         8270         11894
         8280       11893.9
         8290       11893.9
         8300       11893.9
         8310       11893.9
         8320       11893.8
         8330       11893.8
         8340       11893.8
         8350       11893.7
         8360       11893.7
         8370       11893.7
         8380       11893.6
         8390       11893.6
         8400       11893.6
         8410       11893.5
         8420       11893.5
         8430       11893.5
         8440       11893.5
         8450       11893.4
         8460       11893.4
         8470       11893.4
         8480       11893.3
         8490       11893.3
         8500       11893.3
         8510       11893.2
         8520       11893.2
         8530       11893.2
         8540       11893.1
         8550       11893.1
         8560       11893.1
         8570         11893
         8580         11893
         8590         11893
         8600       11892.9
         8610       11892.9
         8620       11892.9
         8630       11892.8
         8640       11892.8
         8650       11892.8
         8660       11892.7
         8670       11892.7
         8680       11892.7
         8690       11892.6
         8700       11892.6
         8710       11892.6
         8720       11892.5
         8730       11892.5
         8740       11892.5
         8750       11892.4
         8760       11892.4
         8770       11892.4
         8780       11892.3
         8790       11892.3
         8800       11892.2
         8810       11892.2
         8820       11892.2
         8830       11892.1
         8840       11892.1
         8850       11892.1
         8860         11892
         8870         11892
         8880         11892
         8890       11891.9
         8900       11891.9
         8910       11891.8
         8920       11891.8
         8930       11891.8
         8940       11891.7
         8950       11891.7
         8960       11891.7
         8970       11891.6
         8980       11891.6
         8990       11891.5
         9000       11891.5
         9010       11891.5
         9020       11891.4
         9030       11891.4
         9040       11891.4
         9050       11891.3
         9060       11891.3
         9070       11891.2
         9080       11891.2
         9090       11891.2
         9100       11891.1
         9110       11891.1
         9120         11891
         9130         11891
         9140         11891
         9150       11890.9
         9160       11890.9
         9170       11890.8
         9180       11890.8
         9190       11890.8
         9200       11890.7
         9210       11890.7
         9220       11890.6
         9230       11890.6
         9240       11890.6
         9250       11890.5
         9260       11890.5
         9270       11890.4
         9280       11890.4
         9290       11890.4
         9300       11890.3
         9310       11890.3
         9320       11890.2
         9330       11890.2
         9340       11890.1
         9350       11890.1
         9360       11890.1
         9370         11890
         9380         11890
         9390       11889.9
         9400       11889.9
         9410       11889.8
         9420       11889.8
         9430       11889.8
         9440       11889.7
         9450       11889.7
         9460       11889.6
         9470       11889.6
         9480       11889.5
         9490       11889.5
         9500       11889.4
         9510       11889.4
         9520       11889.4
         9530       11889.3
         9540       11889.3
         9550       11889.2
         9560       11889.2
         9570       11889.1
         9580       11889.1
         9590         11889
         9600         11889
         9610       11888.9
         9620       11888.9
         9630       11888.8
         9640       11888.8
         9650       11888.8
         9660       11888.7
         9670       11888.7
         9680       11888.6
         9690       11888.6
         9700       11888.5
         9710       11888.5
         9720       11888.4
         9730       11888.4
         9740       11888.3
         9750       11888.3
         9760       11888.2
         9770       11888.2
         9780       11888.1
         9790       11888.1
         9800         11888
         9810         11888
         9820       11887.9
         9830       11887.9
         9840       11887.8
         9850       11887.8
         9860       11887.7
         9870       11887.7
         9880       11887.6
         9890       11887.6
         9900       11887.5
         9910       11887.5
         9920       11887.4
         9930       11887.4
         9940       11887.3
         9950       11887.3
         9960       11887.2
         9970       11887.2
         9980       11887.1
         9990       11887.1
        10000         11887
        10010         11887
        10020       11886.9
        10030       11886.9
        10040       11886.8
        10050       11886.8
        10060       11886.7
        10070       11886.7
        10080       11886.6
        10090       11886.5
        10100       11886.5
        10110       11886.4
        10120       11886.4
        10130       11886.3
        10140       11886.3
        10150       11886.2
        10160       11886.2
        10170       11886.1
        10180       11886.1
        10190         11886
        10200       11885.9
        10210       11885.9
        10220       11885.8
        10230       11885.8
        10240       11885.7
        10250       11885.7
        10260       11885.6
        10270       11885.6
        10280       11885.5
        10290       11885.4
        10300       11885.4
        10310       11885.3
        10320       11885.3
        10330       11885.2
        10340       11885.2
        10350       11885.1
        10360         11885
        10370         11885
        10380       11884.9
        10390       11884.9
        10400       11884.8
        10410       11884.7
        10420       11884.7
        10430       11884.6
        10440       11884.6
        10450       11884.5
        10460       11884.4
        10470       11884.4
        10480       11884.3
        10490       11884.3
        10500       11884.2
        10510       11884.1
        10520       11884.1
        10530         11884
        10540         11884
        10550       11883.9
        10560       11883.8
        10570       11883.8
        10580       11883.7
        10590       11883.7
        10600       11883.6
        10610       11883.5
        10620       11883.5
        10630       11883.4
        10640       11883.3
        10650       11883.3
        10660       11883.2
        10670       11883.2
        10680       11883.1
        10690         11883
        10700         11883