# Probe 0 (0.05 0.05 0.005)
#       Probe             0
#        Time
        0.001   7.91796e-08
        0.002   1.36608e-06
        0.003    7.2042e-06
        0.004   2.33464e-05
        0.005   5.83612e-05
        0.006   0.000123274
        0.007   0.000231551
        0.008   0.000398922
        0.009    0.00064309
         0.01   0.000983289
        0.011    0.00143967
        0.012    0.00203245
        0.013    0.00278088
        0.014    0.00370197
        0.015    0.00480903
        0.016    0.00611019
        0.017    0.00760686
        0.018    0.00929251
        0.019     0.0111517
         0.02     0.0131599
        0.021     0.0152839
        0.022      0.017483
        0.023     0.0197113
        0.024     0.0219209
        0.025     0.0240643
        0.026     0.0260989
        0.027     0.0279887
        0.028     0.0297075
        0.029     0.0312391
         0.03     0.0325782
        0.031     0.0337282
        0.032     0.0347002
        0.033     0.0355106
        0.034     0.0361785
        0.035     0.0367242
        0.036     0.0371672
        0.037     0.0375254
        0.038     0.0378146
        0.039     0.0380482
         0.04     0.0382373
        0.041      0.038391
        0.042     0.0385164
        0.043     0.0386193
        0.044     0.0387043
        0.045     0.0387748
        0.046     0.0388337
        0.047     0.0388832
        0.048     0.0389251
        0.049     0.0389607
         0.05     0.0389911
