# Probe 0 (0.05 0.05 0.005)
#       Probe             0
#        Time
        0.001     0.0399999
        0.002     0.0399986
        0.003     0.0399928
        0.004     0.0399766
        0.005     0.0399416
        0.006     0.0398767
        0.007     0.0397684
        0.008     0.0396009
        0.009     0.0393565
         0.01     0.0390159
        0.011     0.0385587
        0.012     0.0379646
        0.013     0.0372139
        0.014     0.0362894
        0.015     0.0351772
        0.016     0.0338687
        0.017     0.0323618
        0.018     0.0306625
        0.019     0.0287854
         0.02     0.0267546
        0.021     0.0246029
        0.022     0.0223709
        0.023     0.0201044
        0.024     0.0178521
        0.025     0.0156621
        0.026     0.0135783
        0.027      0.011638
        0.028    0.00986892
        0.029     0.0082885
         0.03    0.00690363
        0.031    0.00571164
        0.032     0.0047021
        0.033    0.00385904
        0.034    0.00316323
        0.035    0.00259425
        0.036    0.00213209
        0.037    0.00175829
        0.038    0.00145652
        0.039    0.00121286
         0.04    0.00101575
        0.041   0.000855741
        0.042   0.000725282
        0.043   0.000618355
        0.044   0.000530212
        0.045   0.000457115
        0.046   0.000396126
        0.047    0.00034493
        0.048   0.000301702
        0.049   0.000264995
         0.05   0.000233657
