# Probe 0 (0.05 0.05 0.005)
#       Probe             0
#        Time
        0.001     0.0399999
        0.002     0.0399986
        0.003     0.0399928
        0.004     0.0399766
        0.005     0.0399416
        0.006     0.0398767
        0.007     0.0397684
        0.008     0.0396009
        0.009     0.0393566
         0.01     0.0390161
        0.011     0.0385592
        0.012     0.0379655
        0.013     0.0372156
        0.014     0.0362923
        0.015     0.0351818
        0.016     0.0338758
        0.017     0.0323723
        0.018     0.0306775
        0.019     0.0288064
         0.02     0.0267832
        0.021     0.0246409
        0.022     0.0224199
        0.023     0.0201663
        0.024     0.0179285
        0.025     0.0157543
        0.026     0.0136873
        0.027     0.0117642
        0.028     0.0100124
        0.029    0.00844881
         0.03    0.00707987
        0.031    0.00590259
        0.032     0.0049063
        0.033    0.00407492
        0.034     0.0033892
        0.035    0.00282878
        0.036     0.0023738
        0.037    0.00200595
        0.038    0.00170907
        0.039    0.00146942
         0.04    0.00127557
        0.041    0.00111824
        0.042   0.000989969
        0.043   0.000884838
        0.044   0.000798177
        0.045   0.000726309
        0.046   0.000666344
        0.047   0.000616008
        0.048   0.000573506
        0.049   0.000537415
         0.05   0.000506603
