# Probe 0 (0.05 0.05 0.005)
#       Probe             0
#        Time
        0.001   1.94769e-08
        0.002   3.36034e-07
        0.003   1.77212e-06
        0.004   5.74283e-06
        0.005   1.43559e-05
        0.006   3.03235e-05
        0.007   5.69579e-05
        0.008   9.81285e-05
        0.009    0.00015819
         0.01   0.000241873
        0.011   0.000354135
        0.012    0.00049995
        0.013   0.000684052
        0.014   0.000910624
        0.015    0.00118294
        0.016    0.00150301
        0.017    0.00187117
        0.018    0.00228581
        0.019    0.00274314
         0.02    0.00323713
        0.021    0.00375959
        0.022    0.00430053
        0.023    0.00484867
        0.024    0.00539218
        0.025    0.00591944
        0.026     0.0064199
        0.027    0.00688477
        0.028    0.00730756
        0.029    0.00768433
         0.03    0.00801371
        0.031    0.00829658
        0.032    0.00853569
        0.033    0.00873504
        0.034    0.00889934
        0.035    0.00903357
        0.036    0.00914253
        0.037    0.00923064
        0.038    0.00930178
        0.039    0.00935925
         0.04    0.00940577
        0.041    0.00944357
        0.042    0.00947442
        0.043    0.00949974
        0.044    0.00952063
        0.045    0.00953798
        0.046    0.00955247
        0.047    0.00956465
        0.048    0.00957494
        0.049     0.0095837
         0.05    0.00959118
