# Probe 0 (0.05 0.05 0.005)
#       Probe             0
#        Time
        0.001   0.000976102
        0.002   0.000976071
        0.003   0.000975928
        0.004   0.000975534
        0.005    0.00097468
        0.006   0.000973096
        0.007   0.000970453
        0.008   0.000966368
        0.009   0.000960408
         0.01   0.000952102
        0.011   0.000940959
        0.012   0.000926483
        0.013   0.000908201
        0.014   0.000885696
        0.015    0.00085864
        0.016   0.000826829
        0.017   0.000790223
        0.018   0.000748978
        0.019   0.000703463
         0.02   0.000654276
        0.021   0.000602222
        0.022   0.000548294
        0.023    0.00049361
        0.024   0.000439349
        0.025   0.000386671
        0.026   0.000336631
        0.027   0.000290114
        0.028   0.000247774
        0.029   0.000210014
         0.03   0.000176981
        0.031   0.000148594
        0.032   0.000124586
        0.033   0.000104563
        0.034   8.80551e-05
        0.035   7.45679e-05
        0.036     6.362e-05
        0.037   5.47686e-05
        0.038   4.76244e-05
        0.039    4.1856e-05
         0.04   3.71885e-05
        0.041   3.33987e-05
        0.042   3.03074e-05
        0.043   2.77724e-05
        0.044   2.56817e-05
        0.045   2.39468e-05
        0.046   2.24984e-05
        0.047   2.12818e-05
        0.048    2.0254e-05
        0.049   1.93808e-05
         0.05   1.86349e-05
