# Probe 0 (0.05 0.05 0.005)
#       Probe             0
#        Time
        0.001     0.0027055
        0.002      0.022311
        0.003     0.0765206
        0.004      0.183187
        0.005      0.361018
        0.006      0.628161
        0.007        1.0024
        0.008        1.5009
        0.009        2.1398
         0.01       2.93378
        0.011       3.89539
        0.012       5.03439
        0.013       6.35694
        0.014       7.86472
        0.015       9.55412
        0.016       11.4155
        0.017       13.4325
        0.018       15.5819
        0.019       17.8339
         0.02       20.1522
        0.021       22.4959
        0.022       24.8205
        0.023       27.0807
        0.024       29.2325
        0.025       31.2363
        0.026       33.0588
        0.027       34.6756
        0.028       36.0718
        0.029        37.243
         0.03       38.1941
        0.031       38.9386
        0.032       39.4957
        0.033       39.8891
        0.034       40.1437
        0.035       40.2845
        0.036       40.3347
        0.037       40.3147
        0.038       40.2422
        0.039       40.1313
         0.04       39.9937
        0.041       39.8382
        0.042       39.6714
        0.043       39.4985
        0.044       39.3232
        0.045        39.148
        0.046       38.9748
        0.047       38.8049
        0.048       38.6391
        0.049        38.478
         0.05       38.3219
