# Probe 0 (0.05 0.05 0.005)
#       Probe             0
#        Time
        0.001   5.75232e+07
        0.002   1.15046e+08
        0.003   1.72568e+08
        0.004   2.30087e+08
        0.005   2.87598e+08
        0.006   3.45093e+08
        0.007   4.02559e+08
        0.008    4.5998e+08
        0.009   5.17333e+08
         0.01   5.74586e+08
        0.011   6.31702e+08
        0.012   6.88635e+08
        0.013    7.4533e+08
        0.014   8.01723e+08
        0.015   8.57737e+08
        0.016    9.1329e+08
        0.017   9.68285e+08
        0.018   1.02262e+09
        0.019   1.07617e+09
         0.02   1.12883e+09
        0.021   1.18046e+09
        0.022   1.23093e+09
        0.023    1.2801e+09
        0.024   1.32784e+09
        0.025   1.37402e+09
        0.026    1.4185e+09
        0.027   1.46119e+09
        0.028   1.50198e+09
        0.029    1.5408e+09
         0.03   1.57759e+09
        0.031   1.61233e+09
        0.032   1.64502e+09
        0.033   1.67569e+09
        0.034   1.70437e+09
        0.035   1.73116e+09
        0.036   1.75614e+09
        0.037   1.77942e+09
        0.038   1.80111e+09
        0.039   1.82133e+09
         0.04   1.84019e+09
        0.041   1.85781e+09
        0.042    1.8743e+09
        0.043   1.88976e+09
        0.044   1.90428e+09
        0.045   1.91795e+09
        0.046   1.93084e+09
        0.047   1.94302e+09
        0.048   1.95455e+09
        0.049   1.96549e+09
         0.05   1.97588e+09
