# Probe 0 (0.05 0.05 0.005)
#       Probe             0
#        Time
        0.001       394.498
        0.002       1602.12
        0.003       3633.87
        0.004       6492.22
        0.005       10189.6
        0.006       14723.2
        0.007         20088
        0.008       26275.2
        0.009       33271.5
         0.01       41057.3
        0.011       49605.7
        0.012         58880
        0.013       68833.3
        0.014       79406.1
        0.015       90525.8
        0.016        102106
        0.017        114046
        0.018        126231
        0.019        138537
         0.02        150826
        0.021        162959
        0.022        174792
        0.023        186188
        0.024        197018
        0.025        207169
        0.026        216550
        0.027        225095
        0.028        232764
        0.029        239549
         0.03        245468
        0.031        250563
        0.032        254895
        0.033        258537
        0.034        261572
        0.035        264081
        0.036        266145
        0.037        267837
        0.038        269222
        0.039        270356
         0.04        271286
        0.041        272051
        0.042        272683
        0.043        273208
        0.044        273647
        0.045        274014
        0.046        274325
        0.047        274588
        0.048        274813
        0.049        275005
         0.05        275172
