# Probe 0 (0.05 0.05 0.005)
#       Probe             0
#        Time
        0.001   0.000724435
        0.002   0.000724411
        0.003   0.000724306
        0.004   0.000724013
        0.005   0.000723379
        0.006   0.000722203
        0.007   0.000720241
        0.008   0.000717208
        0.009   0.000712782
         0.01   0.000706613
        0.011   0.000698333
        0.012   0.000687573
        0.013   0.000673978
        0.014   0.000657234
        0.015   0.000637092
        0.016   0.000613393
        0.017   0.000586102
        0.018   0.000555325
        0.019   0.000521329
         0.02   0.000484549
        0.021   0.000445581
        0.022   0.000405156
        0.023   0.000364108
        0.024   0.000323318
        0.025   0.000283654
        0.026   0.000245916
        0.027   0.000210775
        0.028   0.000178735
        0.029   0.000150112
         0.03   0.000125031
        0.031   0.000103443
        0.032   8.51592e-05
        0.033   6.98906e-05
        0.034   5.72889e-05
        0.035   4.69841e-05
        0.036   3.86141e-05
        0.037   3.18442e-05
        0.038   2.63789e-05
        0.039    2.1966e-05
         0.04   1.83961e-05
        0.041   1.54982e-05
        0.042   1.31355e-05
        0.043    1.1199e-05
        0.044   9.60262e-06
        0.045   8.27877e-06
        0.046   7.17419e-06
        0.047   6.24699e-06
        0.048   5.46409e-06
        0.049   4.79929e-06
         0.05   4.23174e-06
