# Probe 0 (0.05 0.05 0.005)
#       Probe             0
#        Time
        0.001   5.75231e+10
        0.002   5.75228e+10
        0.003   5.75212e+10
        0.004   5.75166e+10
        0.005    5.7506e+10
        0.006   5.74859e+10
        0.007   5.74516e+10
        0.008   5.73977e+10
        0.009   5.73178e+10
         0.01    5.7205e+10
        0.011   5.70511e+10
        0.012   5.68475e+10
        0.013   5.65851e+10
        0.014    5.6254e+10
        0.015   5.58442e+10
        0.016   5.53454e+10
        0.017   5.47476e+10
        0.018   5.40411e+10
        0.019   5.32172e+10
         0.02    5.2268e+10
        0.021   5.11875e+10
        0.022    4.9972e+10
        0.023   4.86201e+10
        0.024   4.71337e+10
        0.025   4.55183e+10
        0.026   4.37833e+10
        0.027   4.19421e+10
        0.028   4.00123e+10
        0.029   3.80152e+10
         0.03   3.59751e+10
        0.031   3.39185e+10
        0.032   3.18724e+10
        0.033   2.98633e+10
        0.034   2.79154e+10
        0.035   2.60494e+10
        0.036   2.42815e+10
        0.037   2.26233e+10
        0.038    2.1081e+10
        0.039   1.96568e+10
         0.04    1.8349e+10
        0.041   1.71531e+10
        0.042   1.60626e+10
        0.043   1.50697e+10
        0.044   1.41663e+10
        0.045    1.3344e+10
        0.046   1.25947e+10
        0.047   1.19109e+10
        0.048   1.12856e+10
        0.049   1.07124e+10
         0.05   1.01856e+10
