# Probe 0 (0.05 0.05 0.005)
#       Probe             0
#        Time
        0.001     0.0038141
        0.002    0.00381398
        0.003    0.00381342
        0.004    0.00381188
        0.005    0.00380854
        0.006    0.00380235
        0.007    0.00379203
        0.008    0.00377606
        0.009    0.00375276
         0.01     0.0037203
        0.011    0.00367673
        0.012    0.00362012
        0.013    0.00354862
        0.014    0.00346057
        0.015    0.00335468
        0.016    0.00323015
        0.017    0.00308679
        0.018    0.00292519
        0.019    0.00274677
         0.02    0.00255385
        0.021    0.00234957
        0.022     0.0021378
        0.023    0.00192291
        0.024    0.00170953
        0.025    0.00150221
        0.026    0.00130512
        0.027    0.00112175
        0.028   0.000954712
        0.029   0.000805618
         0.03   0.000675086
        0.031   0.000562829
        0.032    0.00046783
        0.033   0.000388555
        0.034   0.000323169
        0.035   0.000269732
        0.036   0.000226349
        0.037   0.000191273
        0.038   0.000162965
        0.039   0.000140113
         0.04    0.00012163
        0.041   0.000106627
        0.042   9.43963e-05
        0.043   8.43718e-05
        0.044   7.61084e-05
        0.045   6.92556e-05
        0.046   6.35378e-05
        0.047   5.87381e-05
        0.048   5.46854e-05
        0.049    5.1244e-05
         0.05   4.83061e-05
