# Probe 0 (0.05 0.05 0.005)
#       Probe             0
#        Time
        0.001       1051.11
        0.002       1051.08
        0.003       1050.96
        0.004       1050.61
        0.005       1049.81
        0.006       1048.28
        0.007        1045.7
        0.008       1041.64
        0.009       1035.65
         0.01       1027.24
        0.011       1015.87
        0.012       1001.01
        0.013       982.129
        0.014        958.76
        0.015       930.519
        0.016        897.15
        0.017       858.562
        0.018       814.867
        0.019       766.411
         0.02        713.78
        0.021         657.8
        0.022       599.505
        0.023       540.088
        0.024       480.828
        0.025       423.004
        0.026       367.807
        0.027       316.254
        0.028       269.129
        0.029       226.937
         0.03       189.903
        0.031        157.99
        0.032       130.946
        0.033       108.362
        0.034       89.7299
        0.035       74.5072
        0.036       62.1561
        0.037        52.178
        0.038       44.1314
        0.039       37.6392
         0.04       32.3881
        0.041       28.1237
        0.042        24.642
        0.043       21.7814
        0.044       19.4151
        0.045       17.4433
        0.046       15.7881
        0.047       14.3883
        0.048       13.1958
        0.049       12.1727
         0.05        11.289
