# Probe 0 (0.05 0.05 0.005)
#       Probe             0
#        Time
        0.001     0.0399619
        0.002     0.0399609
        0.003     0.0399563
        0.004      0.039943
        0.005     0.0399126
        0.006     0.0398547
        0.007     0.0397562
        0.008      0.039602
        0.009     0.0393745
         0.01     0.0390549
        0.011     0.0386229
        0.012     0.0380582
        0.013      0.037341
        0.014     0.0364535
        0.015     0.0353813
        0.016     0.0341148
        0.017     0.0326506
        0.018     0.0309932
        0.019     0.0291557
         0.02     0.0271605
        0.021     0.0250389
        0.022     0.0228301
        0.023     0.0205791
        0.024     0.0183341
        0.025     0.0161434
        0.026     0.0140515
        0.027     0.0120969
        0.028     0.0103087
        0.029    0.00870615
         0.03    0.00729761
        0.031    0.00608185
        0.032    0.00504954
        0.033    0.00418546
        0.034    0.00347082
        0.035    0.00288532
        0.036    0.00240889
        0.037    0.00202283
        0.038    0.00171053
        0.039    0.00145778
         0.04    0.00125271
        0.041    0.00108565
        0.042   0.000948817
        0.043   0.000836038
        0.044   0.000742435
        0.045   0.000664171
        0.046   0.000598238
        0.047   0.000542267
        0.048   0.000494396
        0.049   0.000453151
         0.05   0.000417362
