# Probe 0 (0.05 0.05 0.005)
#       Probe             0
#        Time
        0.001       1052.11
        0.002       1052.08
        0.003       1051.96
        0.004       1051.61
        0.005       1050.81
        0.006       1049.29
        0.007        1046.7
        0.008       1042.64
        0.009       1036.66
         0.01       1028.25
        0.011       1016.89
        0.012       1002.03
        0.013       983.168
        0.014       959.826
        0.015       931.625
        0.016       898.311
        0.017       859.798
        0.018       816.203
        0.019       767.872
         0.02       715.394
        0.021       659.591
        0.022       601.493
        0.023       542.286
        0.024       483.237
        0.025       425.614
        0.026       370.593
        0.027        319.18
        0.028       272.147
        0.029       229.995
         0.03       192.947
        0.031       160.969
        0.032       133.816
        0.033       111.089
        0.034       92.2919
        0.035       76.8918
        0.036       64.3603
        0.037       54.2058
        0.038       45.9916
        0.039       39.3435
         0.04       33.9496
        0.041       29.5554
        0.042       25.9564
        0.043       22.9901
        0.044        20.528
        0.045       18.4695
        0.046       16.7353
        0.047       15.2631
        0.048       14.0039
        0.049       12.9191
         0.05       11.9778
