0.000000e+00 	0.040000 
1.445517e-11 	0.040000 
2.891033e-11 	0.040000 
4.336550e-11 	0.040000 
5.782066e-11 	0.040000 
1.300965e-10 	0.040000 
2.023723e-10 	0.040000 
2.746481e-10 	0.040000 
3.469240e-10 	0.040000 
7.083031e-10 	0.040000 
1.069682e-09 	0.040000 
1.431061e-09 	0.040000 
1.792441e-09 	0.040000 
3.599336e-09 	0.040000 
5.406232e-09 	0.040000 
7.213128e-09 	0.040000 
9.020023e-09 	0.040000 
1.805450e-08 	0.040000 
2.708898e-08 	0.040000 
3.612346e-08 	0.040000 
4.515794e-08 	0.040000 
9.033033e-08 	0.040000 
1.355027e-07 	0.040000 
1.806751e-07 	0.040000 
2.258475e-07 	0.040000 
4.517095e-07 	0.040000 
6.775714e-07 	0.040000 
9.034334e-07 	0.040000 
1.129295e-06 	0.040000 
2.258605e-06 	0.040000 
3.387915e-06 	0.040000 
4.517225e-06 	0.040000 
5.646535e-06 	0.040000 
1.129308e-05 	0.040000 
1.693963e-05 	0.040000 
2.258618e-05 	0.040000 
2.823273e-05 	0.040000 
5.646548e-05 	0.040000 
8.469822e-05 	0.040000 
1.129310e-04 	0.040000 
1.411637e-04 	0.040000 
2.823274e-04 	0.040000 
4.234912e-04 	0.040000 
5.646549e-04 	0.040000 
7.058186e-04 	0.040000 
1.411637e-03 	0.039999 
2.117456e-03 	0.039997 
2.823274e-03 	0.039991 
3.529093e-03 	0.039978 
4.540144e-03 	0.039939 
5.551196e-03 	0.039863 
6.562247e-03 	0.039732 
7.573298e-03 	0.039527 
8.703499e-03 	0.039179 
9.833700e-03 	0.038672 
1.096390e-02 	0.037969 
1.209410e-02 	0.037036 
1.270424e-02 	0.036425 
1.331437e-02 	0.035734 
1.392451e-02 	0.034959 
1.453465e-02 	0.034100 
1.514478e-02 	0.033155 
1.575492e-02 	0.032124 
1.636505e-02 	0.031011 
1.697519e-02 	0.029819 
1.757774e-02 	0.028570 
1.818029e-02 	0.027258 
1.878284e-02 	0.025889 
1.938539e-02 	0.024475 
1.985852e-02 	0.023341 
2.033166e-02 	0.022191 
2.080479e-02 	0.021033 
2.127792e-02 	0.019872 
2.175106e-02 	0.018716 
2.222419e-02 	0.017570 
2.269733e-02 	0.016442 
2.317046e-02 	0.015337 
2.362451e-02 	0.014303 
2.407855e-02 	0.013301 
2.453260e-02 	0.012334 
2.498664e-02 	0.011407 
2.538412e-02 	0.010629 
2.578160e-02 	0.009885 
2.617908e-02 	0.009177 
2.657656e-02 	0.008505 
2.696442e-02 	0.007884 
2.735229e-02 	0.007298 
2.774015e-02 	0.006748 
2.812802e-02 	0.006232 
2.849450e-02 	0.005776 
2.886097e-02 	0.005349 
2.922745e-02 	0.004951 
2.959393e-02 	0.004581 
2.990478e-02 	0.004288 
3.021564e-02 	0.004014 
3.052650e-02 	0.003756 
3.083735e-02 	0.003516 
3.114525e-02 	0.003294 
3.145316e-02 	0.003087 
3.176106e-02 	0.002894 
3.206896e-02 	0.002714 
3.238811e-02 	0.002540 
3.270726e-02 	0.002380 
3.302640e-02 	0.002231 
3.334555e-02 	0.002093 
3.369787e-02 	0.001953 
3.405020e-02 	0.001824 
3.440252e-02 	0.001706 
3.475484e-02 	0.001598 
3.518682e-02 	0.001477 
3.561880e-02 	0.001368 
3.605078e-02 	0.001270 
3.648276e-02 	0.001182 
3.696986e-02 	0.001093 
3.745697e-02 	0.001013 
3.794407e-02 	0.000942 
3.843117e-02 	0.000878 
3.884292e-02 	0.000830 
3.925466e-02 	0.000785 
3.966640e-02 	0.000745 
4.007815e-02 	0.000707 
4.052671e-02 	0.000670 
4.097528e-02 	0.000637 
4.142384e-02 	0.000606 
4.187241e-02 	0.000578 
4.238228e-02 	0.000548 
4.289216e-02 	0.000522 
4.340203e-02 	0.000498 
4.391191e-02 	0.000476 
4.457828e-02 	0.000449 
4.524466e-02 	0.000426 
4.591104e-02 	0.000405 
4.657742e-02 	0.000386 
4.729124e-02 	0.000368 
4.800505e-02 	0.000352 
4.871887e-02 	0.000337 
4.943268e-02 	0.000323 
4.957451e-02 	0.000321 
4.971634e-02 	0.000318 
4.985817e-02 	0.000316 
5.000000e-02 	0.000314 
