# Probe 0 (0.05 0.05 0.005)
#       Probe             0
#        Time
        0.001       9.06618
        0.002       9.06615
        0.003         9.066
        0.004       9.06556
        0.005       9.06457
        0.006       9.06268
        0.007       9.05946
        0.008        9.0544
        0.009        9.0469
         0.01       9.03629
        0.011       9.02182
        0.012       9.00265
        0.013       8.97788
        0.014       8.94658
        0.015       8.90772
        0.016       8.86028
        0.017       8.80319
        0.018        8.7354
        0.019       8.65587
         0.02       8.56364
        0.021       8.45782
        0.022       8.33769
        0.023       8.20268
        0.024       8.05248
        0.025       7.88705
        0.026       7.70669
        0.027       7.51211
        0.028       7.30441
        0.029       7.08516
         0.03       6.85631
        0.031       6.62023
        0.032       6.37953
        0.033       6.13701
        0.034       5.89549
        0.035       5.65764
        0.036       5.42585
        0.037       5.20214
        0.038       4.98804
        0.039       4.78462
         0.04       4.59251
        0.041       4.41191
        0.042       4.24273
        0.043       4.08462
        0.044       3.93704
        0.045       3.79937
        0.046        3.6709
        0.047       3.55093
        0.048       3.43875
        0.049        3.3337
         0.05       3.23513
