0.000000e+00 	0.000000 
1.446559e-14 	-0.000000 
2.893117e-14 	-0.000000 
4.339676e-14 	-0.000000 
5.786235e-14 	-0.000000 
1.301903e-13 	-0.000000 
2.025182e-13 	-0.000000 
2.748461e-13 	-0.000000 
3.471741e-13 	-0.000000 
7.088137e-13 	-0.000000 
1.070453e-12 	-0.000000 
1.432093e-12 	-0.000000 
1.793733e-12 	-0.000000 
3.601931e-12 	-0.000000 
5.410129e-12 	-0.000000 
7.218328e-12 	-0.000000 
9.026526e-12 	-0.000000 
1.806752e-11 	-0.000000 
2.710851e-11 	-0.000000 
3.614950e-11 	-0.000000 
4.519049e-11 	-0.000000 
9.039545e-11 	-0.000000 
1.356004e-10 	-0.000000 
1.808054e-10 	-0.000000 
2.260103e-10 	-0.000000 
4.520351e-10 	-0.000000 
6.780599e-10 	-0.000000 
9.040847e-10 	-0.000000 
1.130109e-09 	-0.000000 
2.260233e-09 	-0.000000 
3.390357e-09 	-0.000000 
4.520481e-09 	-0.000000 
5.650605e-09 	-0.000000 
1.130122e-08 	-0.000000 
1.695184e-08 	-0.000000 
2.260246e-08 	-0.000000 
2.825308e-08 	-0.000000 
5.650618e-08 	-0.000000 
8.475928e-08 	-0.000000 
1.130124e-07 	-0.000000 
1.412655e-07 	-0.000000 
2.825310e-07 	-0.000000 
4.237965e-07 	-0.000000 
5.650619e-07 	-0.000000 
7.063274e-07 	-0.000000 
1.412655e-06 	-0.000000 
2.118982e-06 	-0.000000 
2.825310e-06 	-0.000000 
3.531637e-06 	-0.000000 
7.063275e-06 	-0.000000 
1.059491e-05 	-0.000001 
1.412655e-05 	-0.000002 
1.765819e-05 	-0.000003 
3.531637e-05 	-0.000025 
5.297456e-05 	-0.000086 
7.063275e-05 	-0.000204 
8.829093e-05 	-0.000398 
1.765819e-04 	-0.003187 
2.648728e-04 	-0.010757 
3.531637e-04 	-0.025495 
4.414547e-04 	-0.049788 
6.093362e-04 	-0.130895 
7.772177e-04 	-0.271413 
9.450992e-04 	-0.487042 
1.112981e-03 	-0.792851 
1.308115e-03 	-1.279561 
1.503248e-03 	-1.924649 
1.698382e-03 	-2.739219 
1.893516e-03 	-3.725211 
2.032427e-03 	-4.527068 
2.171338e-03 	-5.403644 
2.310249e-03 	-6.342956 
2.449160e-03 	-7.328031 
2.555611e-03 	-8.100720 
2.662063e-03 	-8.876579 
2.768515e-03 	-9.642939 
2.874967e-03 	-10.386101 
2.981419e-03 	-11.091750 
3.087871e-03 	-11.744555 
3.194323e-03 	-12.329421 
3.300775e-03 	-12.832468 
3.413598e-03 	-13.262743 
3.526422e-03 	-13.572735 
3.639246e-03 	-13.751181 
3.752070e-03 	-13.792596 
3.851491e-03 	-13.714492 
3.950912e-03 	-13.528730 
4.050332e-03 	-13.238523 
4.149753e-03 	-12.851156 
4.229869e-03 	-12.474792 
4.309984e-03 	-12.046647 
4.390099e-03 	-11.573103 
4.470215e-03 	-11.061229 
4.540393e-03 	-10.587161 
4.610572e-03 	-10.094473 
4.680751e-03 	-9.588376 
4.750930e-03 	-9.073836 
4.820454e-03 	-8.560416 
4.889978e-03 	-8.048066 
4.959502e-03 	-7.541118 
5.029027e-03 	-7.043214 
5.092247e-03 	-6.601006 
5.155467e-03 	-6.171369 
5.218687e-03 	-5.756300 
5.281908e-03 	-5.357269 
5.336994e-03 	-5.023553 
5.392081e-03 	-4.703642 
5.447168e-03 	-4.398033 
5.502255e-03 	-4.106999 
5.557085e-03 	-3.831913 
5.611915e-03 	-3.571449 
5.666745e-03 	-3.325515 
5.721575e-03 	-3.093882 
5.778695e-03 	-2.867439 
5.835815e-03 	-2.655751 
5.892934e-03 	-2.458310 
5.950054e-03 	-2.274535 
6.013396e-03 	-2.085973 
6.076739e-03 	-1.912566 
6.140081e-03 	-1.753390 
6.203424e-03 	-1.607529 
6.282573e-03 	-1.442624 
6.361723e-03 	-1.295303 
6.440873e-03 	-1.163840 
6.520022e-03 	-1.046710 
6.603454e-03 	-0.937196 
6.686885e-03 	-0.840341 
6.770317e-03 	-0.754656 
6.853748e-03 	-0.678882 
6.927492e-03 	-0.619246 
7.001236e-03 	-0.565695 
7.074979e-03 	-0.517569 
7.148723e-03 	-0.474288 
7.228979e-03 	-0.432081 
7.309234e-03 	-0.394389 
7.389489e-03 	-0.360685 
7.469745e-03 	-0.330502 
7.561530e-03 	-0.299769 
7.653315e-03 	-0.272576 
7.745101e-03 	-0.248468 
7.836886e-03 	-0.227042 
7.959269e-03 	-0.202038 
8.081652e-03 	-0.180529 
8.204035e-03 	-0.161973 
8.326417e-03 	-0.145877 
8.450634e-03 	-0.131637 
8.574852e-03 	-0.119215 
8.699069e-03 	-0.108351 
8.823286e-03 	-0.098799 
8.940611e-03 	-0.090800 
9.057936e-03 	-0.083672 
9.175261e-03 	-0.077304 
9.292586e-03 	-0.071594 
9.415060e-03 	-0.066242 
9.537533e-03 	-0.061438 
9.660007e-03 	-0.057116 
9.782480e-03 	-0.053214 
9.913437e-03 	-0.049446 
1.004439e-02 	-0.046051 
1.017535e-02 	-0.042982 
1.030631e-02 	-0.040201 
1.044825e-02 	-0.037469 
1.059018e-02 	-0.035000 
1.073212e-02 	-0.032762 
1.087406e-02 	-0.030727 
1.102920e-02 	-0.028707 
1.118435e-02 	-0.026877 
1.133949e-02 	-0.025215 
1.149464e-02 	-0.023701 
1.166526e-02 	-0.022185 
1.183588e-02 	-0.020810 
1.200649e-02 	-0.019558 
1.217711e-02 	-0.018416 
1.236563e-02 	-0.017266 
1.255415e-02 	-0.016221 
1.274266e-02 	-0.015269 
1.293118e-02 	-0.014399 
1.314026e-02 	-0.013518 
1.334934e-02 	-0.012717 
1.355841e-02 	-0.011986 
1.376749e-02 	-0.011317 
1.400011e-02 	-0.010638 
1.423272e-02 	-0.010019 
1.446534e-02 	-0.009453 
1.469795e-02 	-0.008936 
1.495745e-02 	-0.008408 
1.521695e-02 	-0.007927 
1.547645e-02 	-0.007487 
1.573595e-02 	-0.007084 
1.602611e-02 	-0.006672 
1.631627e-02 	-0.006296 
1.660644e-02 	-0.005952 
1.689660e-02 	-0.005636 
1.722173e-02 	-0.005313 
1.754685e-02 	-0.005017 
1.787197e-02 	-0.004747 
1.819710e-02 	-0.004499 
1.856206e-02 	-0.004243 
1.892702e-02 	-0.004010 
1.929199e-02 	-0.003797 
1.965695e-02 	-0.003601 
1.974271e-02 	-0.003557 
1.982848e-02 	-0.003514 
1.991424e-02 	-0.003472 
2.000000e-02 	-0.003431 
