# Probe 0 (0.05 0.05 0.005)
#       Probe             0
#        Time
        0.001   -0.00029245
        0.002   -0.00253342
        0.003   -0.00904182
        0.004    -0.0221502
        0.005    -0.0450376
        0.006    -0.0799574
        0.007     -0.129306
        0.008      -0.19527
        0.009     -0.279703
         0.01      -0.38396
        0.011      -0.50871
        0.012     -0.653709
        0.013     -0.817584
        0.014     -0.997622
        0.015      -1.18962
        0.016      -1.38781
        0.017        -1.585
        0.018      -1.77274
        0.019      -1.94187
         0.02      -2.08314
        0.021        -2.188
        0.022      -2.24954
        0.023      -2.26328
        0.024      -2.22784
        0.025      -2.14525
        0.026      -2.02086
        0.027      -1.86285
        0.028      -1.68125
        0.029      -1.48688
         0.03      -1.29016
        0.031      -1.10008
        0.032     -0.923574
        0.033     -0.765209
        0.034     -0.627259
        0.035     -0.510077
        0.036     -0.412587
        0.037     -0.332824
        0.038     -0.268391
        0.039     -0.216814
         0.04     -0.175764
        0.041     -0.143186
        0.042     -0.117343
        0.043    -0.0968075
        0.044    -0.0804378
        0.045    -0.0673304
        0.046     -0.056779
        0.047    -0.0482342
        0.048    -0.0412705
        0.049    -0.0355578
         0.05    -0.0308403
