# Probe 0 (0.05 0.05 0.005)
#       Probe             0
#        Time
        0.001    1.1646e+09
        0.002   1.16452e+09
        0.003   1.16412e+09
        0.004   1.16296e+09
        0.005    1.1603e+09
        0.006   1.15526e+09
        0.007   1.14673e+09
        0.008   1.13344e+09
        0.009   1.11404e+09
         0.01   1.08714e+09
        0.011   1.05148e+09
        0.012   1.00604e+09
        0.013   9.50235e+08
        0.014   8.84072e+08
        0.015   8.08306e+08
        0.016   7.24514e+08
        0.017   6.35084e+08
        0.018   5.43073e+08
        0.019   4.51943e+08
         0.02   3.65189e+08
        0.021   2.85931e+08
        0.022   2.16546e+08
        0.023   1.58418e+08
        0.024    1.1186e+08
        0.025   7.62273e+07
        0.026   5.01645e+07
        0.027   3.19318e+07
        0.028   1.97112e+07
        0.029   1.18425e+07
         0.03   6.95724e+06
        0.031   4.01893e+06
        0.032   2.29717e+06
        0.033   1.30796e+06
        0.034        746881
        0.035        430492
        0.036        251910
        0.037        150382
        0.038       91925.6
        0.039       57687.6
         0.04         37220
        0.041       24702.4
        0.042       16859.8
        0.043       11823.4
        0.044       8508.53
        0.045       6273.61
        0.046       4731.57
        0.047       3643.95
        0.048       2860.77
        0.049       2285.75
         0.05       1855.87
