0.000000e+00 
1.445517e-11 
2.891033e-11 
4.336550e-11 
5.782066e-11 
1.300965e-10 
2.023723e-10 
2.746481e-10 
3.469240e-10 
7.083031e-10 
1.069682e-09 
1.431061e-09 
1.792441e-09 
3.599336e-09 
5.406232e-09 
7.213128e-09 
9.020023e-09 
1.805450e-08 
2.708898e-08 
3.612346e-08 
4.515794e-08 
9.033033e-08 
1.355027e-07 
1.806751e-07 
2.258475e-07 
4.517095e-07 
6.775714e-07 
9.034334e-07 
1.129295e-06 
2.258605e-06 
3.387915e-06 
4.517225e-06 
5.646535e-06 
1.129308e-05 
1.693963e-05 
2.258618e-05 
2.823273e-05 
5.646548e-05 
8.469822e-05 
1.129310e-04 
1.411637e-04 
2.823274e-04 
4.234912e-04 
5.646549e-04 
7.058186e-04 
1.411637e-03 
2.117456e-03 
2.823274e-03 
3.529093e-03 
4.540144e-03 
5.551196e-03 
6.562247e-03 
7.573298e-03 
8.703499e-03 
9.833700e-03 
1.096390e-02 
1.209410e-02 
1.270424e-02 
1.331437e-02 
1.392451e-02 
1.453465e-02 
1.514478e-02 
1.575492e-02 
1.636505e-02 
1.697519e-02 
1.757774e-02 
1.818029e-02 
1.878284e-02 
1.938539e-02 
1.985852e-02 
2.033166e-02 
2.080479e-02 
2.127792e-02 
2.175106e-02 
2.222419e-02 
2.269733e-02 
2.317046e-02 
2.362451e-02 
2.407855e-02 
2.453260e-02 
2.498664e-02 
2.538412e-02 
2.578160e-02 
2.617908e-02 
2.657656e-02 
2.696442e-02 
2.735229e-02 
2.774015e-02 
2.812802e-02 
2.849450e-02 
2.886097e-02 
2.922745e-02 
2.959393e-02 
2.990478e-02 
3.021564e-02 
3.052650e-02 
3.083735e-02 
3.114525e-02 
3.145316e-02 
3.176106e-02 
3.206896e-02 
3.238811e-02 
3.270726e-02 
3.302640e-02 
3.334555e-02 
3.369787e-02 
3.405020e-02 
3.440252e-02 
3.475484e-02 
3.518682e-02 
3.561880e-02 
3.605078e-02 
3.648276e-02 
3.696986e-02 
3.745697e-02 
3.794407e-02 
3.843117e-02 
3.884292e-02 
3.925466e-02 
3.966640e-02 
4.007815e-02 
4.052671e-02 
4.097528e-02 
4.142384e-02 
4.187241e-02 
4.238228e-02 
4.289216e-02 
4.340203e-02 
4.391191e-02 
4.457828e-02 
4.524466e-02 
4.591104e-02 
4.657742e-02 
4.729124e-02 
4.800505e-02 
4.871887e-02 
4.943268e-02 
4.957451e-02 
4.971634e-02 
4.985817e-02 
5.000000e-02 
