# Probe 0 (0.05 0.05 0.005)
#       Probe             0
#        Time
       0.0164     0.0399255
       0.0166     0.0399257
       0.0168     0.0399259
        0.017      0.039926
