# Probe 0 (0.05 0.05 0.005)
#       Probe             0
#        Time
       0.0164   7.44804e-05
       0.0166   7.43017e-05
       0.0168   7.41266e-05
        0.017    7.3955e-05
