# Probe 0 (0.05 0.05 0.005)
#       Probe             0
#        Time
       0.0164    7.4472e-05
       0.0166   7.42933e-05
       0.0168   7.41182e-05
        0.017   7.39466e-05
