# Probe 0 (0.05 0.05 0.005)
#       Probe             0
#        Time
       0.0164   1.81752e-06
       0.0166   1.81315e-06
       0.0168   1.80888e-06
        0.017   1.80469e-06
