# Probe 0 (0.05 0.05 0.005)
#       Probe             0
#        Time
       0.0164         26349
       0.0166       26349.2
       0.0168       26349.4
        0.017       26349.6
