# Probe 0 (0.05 0.05 0.005)
#       Probe             0
#        Time
       0.0164   1.34907e-06
       0.0166   1.34584e-06
       0.0168   1.34267e-06
        0.017   1.33956e-06
