# Probe 0 (0.05 0.05 0.005)
#       Probe             0
#        Time
       0.0164      0.959994
       0.0166      0.955273
       0.0168      0.950648
        0.017      0.946116
