# Probe 0 (0.05 0.05 0.005)
#       Probe             0
#        Time
       0.0164    3.6498e-05
       0.0166   3.63185e-05
       0.0168   3.61426e-05
        0.017   3.59703e-05
