# Probe 0 (0.05 0.05 0.005)
#       Probe             0
#        Time
       0.0164      0.876764
       0.0166      0.873622
       0.0168      0.870537
        0.017      0.867506
