# Probe 0 (0.05 0.05 0.005)
#       Probe             0
#        Time
       0.0164       7.52947
       0.0166       7.47519
       0.0168       7.42227
        0.017       7.37066
