# Probe 0 (0.05 0.05 0.005)
#       Probe             0
#        Time
       0.0164   7.44896e-05
       0.0166   7.43109e-05
       0.0168   7.41358e-05
        0.017   7.39642e-05
