# Probe 0 (0.05 0.05 0.005)
#       Probe             0
#        Time
       0.0164    0.00974687
       0.0166    0.00974692
       0.0168    0.00974696
        0.017      0.009747
