# Probe 0 (0.05 0.05 0.005)
#       Probe             0
#        Time
       0.0164   9.06164e+07
       0.0166   9.08428e+07
       0.0168   9.10678e+07
        0.017   9.12915e+07
