# Probe 0 (0.05 0.05 0.005)
#       Probe             0
#        Time
       0.0164       7.66163
       0.0166       7.64265
       0.0168       7.62387
        0.017        7.6053
