# Probe 0 (0.05 0.05 0.005)
#       Probe             0
#        Time
       0.0164   1.13609e+09
       0.0166   1.12926e+09
       0.0168   1.12257e+09
        0.017   1.11601e+09
