# Probe 0 (0.05 0.05 0.005)
#       Probe             0
#        Time
       0.0164   7.10112e-06
       0.0166   7.08407e-06
       0.0168   7.06738e-06
        0.017   7.05101e-06
