# Probe 0 (0.05 0.05 0.005)
#       Probe             0
#        Time
       0.0164       1.95999
       0.0166       1.95527
       0.0168       1.95065
        0.017       1.94612
