# Probe 0 (0.05 0.05 0.005)
#       Probe             0
#        Time
       0.0164  -0.000904844
       0.0166  -0.000886344
       0.0168   -0.00086847
        0.017  -0.000851191
