# Probe 0 (0.05 0.05 0.005)
#       Probe             0
#        Time
            1   1.05621e-12
            2     1.836e-11
            3   9.67228e-11
            4   3.13359e-10
            5    7.7573e-10
            6   1.63184e-09
            7   3.06129e-09
            8    5.2778e-09
            9   8.52917e-09
           10   1.30973e-08
           11   1.92982e-08
           12    2.7482e-08
           13   3.80329e-08
           14   5.13692e-08
           15   6.79434e-08
           16   8.82418e-08
           17   1.12785e-07
           18   1.42128e-07
           19    1.7686e-07
           20   2.17602e-07
           21   2.65013e-07
           22   3.19784e-07
           23   3.82638e-07
           24   4.54337e-07
           25   5.35672e-07
           26   6.27472e-07
           27   7.30598e-07
           28   8.45945e-07
           29   9.74443e-07
           30   1.11706e-06
           31   1.27478e-06
           32   1.44865e-06
           33   1.63973e-06
           34   1.84911e-06
           35   2.07794e-06
           36   2.32739e-06
           37   2.59864e-06
           38   2.89294e-06
           39   3.21156e-06
           40    3.5558e-06
           41   3.92699e-06
           42   4.32652e-06
           43   4.75578e-06
           44   5.21621e-06
           45   5.70929e-06
           46   6.23652e-06
           47   6.79945e-06
           48   7.39963e-06
           49    8.0387e-06
           50   8.71828e-06
           51   9.44004e-06
           52   1.02057e-05
           53    1.1017e-05
           54   1.18757e-05
           55   1.27837e-05
           56   1.37427e-05
           57   1.47546e-05
           58   1.58214e-05
           59    1.6945e-05
           60   1.81273e-05
           61   1.93705e-05
           62   2.06764e-05
           63   2.20472e-05
           64    2.3485e-05
           65   2.49919e-05
           66   2.65702e-05
           67   2.82219e-05
           68   2.99494e-05
           69   3.17549e-05
           70   3.36407e-05
           71   3.56091e-05
           72   3.76625e-05
           73   3.98034e-05
           74   4.20341e-05
           75    4.4357e-05
           76   4.67747e-05
           77   4.92898e-05
           78   5.19047e-05
           79    5.4622e-05
           80   5.74444e-05
           81   6.03745e-05
           82   6.34149e-05
           83   6.65684e-05
           84   6.98378e-05
           85   7.32257e-05
           86    7.6735e-05
           87   8.03684e-05
           88    8.4129e-05
           89   8.80194e-05
           90   9.20427e-05
           91   9.62018e-05
           92     0.0001005
           93   0.000104939
           94   0.000109524
           95   0.000114256
           96   0.000119139
           97   0.000124176
           98    0.00012937
           99   0.000134724
          100   0.000140242
          101   0.000145927
          102   0.000151781
          103   0.000157809
          104   0.000164013
          105   0.000170397
          106   0.000176964
          107   0.000183717
          108    0.00019066
          109   0.000197797
          110    0.00020513
          111   0.000212663
          112   0.000220399
          113   0.000228343
          114   0.000236497
          115   0.000244865
          116   0.000253451
          117   0.000262257
          118   0.000271289
          119   0.000280549
          120    0.00029004
          121   0.000299768
          122   0.000309734
          123   0.000319943
          124   0.000330399
          125   0.000341105
          126   0.000352065
          127   0.000363283
          128   0.000374762
          129   0.000386506
          130   0.000398519
          131   0.000410804
          132   0.000423366
          133   0.000436208
          134   0.000449334
          135   0.000462747
          136   0.000476453
          137   0.000490453
          138   0.000504753
          139   0.000519356
          140   0.000534265
          141   0.000549485
          142    0.00056502
          143   0.000580872
          144   0.000597047
          145   0.000613548
          146   0.000630378
          147   0.000647542
          148   0.000665044
          149   0.000682886
          150   0.000701074
          151    0.00071961
          152   0.000738499
          153   0.000757745
          154    0.00077735
          155    0.00079732
          156   0.000817657
          157   0.000838365
          158   0.000859449
          159   0.000880912
          160   0.000902757
          161   0.000924989
          162    0.00094761
          163   0.000970625
          164   0.000994038
          165    0.00101785
          166    0.00104207
          167    0.00106669
          168    0.00109173
          169    0.00111718
          170    0.00114306
          171    0.00116935
          172    0.00119607
          173    0.00122321
          174    0.00125079
          175    0.00127881
          176    0.00130727
          177    0.00133616
          178     0.0013655
          179     0.0013953
          180    0.00142554
          181    0.00145624
          182     0.0014874
          183    0.00151901
          184     0.0015511
          185    0.00158365
          186    0.00161667
          187    0.00165016
          188    0.00168413
          189    0.00171858
          190     0.0017535
          191    0.00178892
          192    0.00182482
          193    0.00186121
          194    0.00189809
          195    0.00193547
          196    0.00197334
          197    0.00201172
          198    0.00205059
          199    0.00208997
          200    0.00212985
          201    0.00217025
          202    0.00221115
          203    0.00225257
          204     0.0022945
          205    0.00233695
          206    0.00237991
          207     0.0024234
          208     0.0024674
          209    0.00251193
          210    0.00255699
          211    0.00260257
          212    0.00264868
          213    0.00269532
          214    0.00274249
          215    0.00279019
          216    0.00283842
          217    0.00288718
          218    0.00293648
          219    0.00298632
          220    0.00303669
          221     0.0030876
          222    0.00313905
          223    0.00319104
          224    0.00324356
          225    0.00329663
          226    0.00335023
          227    0.00340437
          228    0.00345906
          229    0.00351428
          230    0.00357004
          231    0.00362634
          232    0.00368319
          233    0.00374057
          234    0.00379849
          235    0.00385695
          236    0.00391595
          237    0.00397549
          238    0.00403556
          239    0.00409617
          240    0.00415731
          241    0.00421899
          242     0.0042812
          243    0.00434394
          244    0.00440722
          245    0.00447102
          246    0.00453535
          247    0.00460021
          248    0.00466559
          249     0.0047315
          250    0.00479792
          251    0.00486487
          252    0.00493233
          253    0.00500031
          254    0.00506881
          255    0.00513781
          256    0.00520732
          257    0.00527734
          258    0.00534787
          259    0.00541889
          260    0.00549041
          261    0.00556243
          262    0.00563495
          263    0.00570795
          264    0.00578144
          265    0.00585541
          266    0.00592987
          267     0.0060048
          268    0.00608021
          269    0.00615609
          270    0.00623243
          271    0.00630924
          272    0.00638651
          273    0.00646424
          274    0.00654242
          275    0.00662105
          276    0.00670012
          277    0.00677963
          278    0.00685958
          279    0.00693997
          280    0.00702078
          281    0.00710201
          282    0.00718367
          283    0.00726574
          284    0.00734822
          285    0.00743111
          286    0.00751439
          287    0.00759808
          288    0.00768215
          289    0.00776662
          290    0.00785146
          291    0.00793668
          292    0.00802228
          293    0.00810824
          294    0.00819456
          295    0.00828124
          296    0.00836827
          297    0.00845565
          298    0.00854337
          299    0.00863142
          300     0.0087198
          301    0.00880851
          302    0.00889754
          303    0.00898688
          304    0.00907652
          305    0.00916647
          306    0.00925672
          307    0.00934726
          308    0.00943808
          309    0.00952918
          310    0.00962056
          311     0.0097122
          312    0.00980411
          313    0.00989627
          314    0.00998868
          315     0.0100813
          316     0.0101742
          317     0.0102674
          318     0.0103607
          319     0.0104543
          320     0.0105481
          321     0.0106421
          322     0.0107363
          323     0.0108307
          324     0.0109252
          325       0.01102
          326      0.011115
          327     0.0112101
          328     0.0113054
          329     0.0114008
          330     0.0114964
          331     0.0115921
          332      0.011688
          333      0.011784
          334     0.0118802
          335     0.0119765
          336     0.0120729
          337     0.0121694
          338      0.012266
          339     0.0123627
          340     0.0124595
          341     0.0125564
          342     0.0126533
          343     0.0127504
          344     0.0128475
          345     0.0129447
          346     0.0130419
          347     0.0131392
          348     0.0132365
          349     0.0133339
          350     0.0134313
          351     0.0135288
          352     0.0136262
          353     0.0137237
          354     0.0138212
          355     0.0139187
          356     0.0140162
          357     0.0141137
          358     0.0142112
          359     0.0143086
          360     0.0144061
          361     0.0145035
          362     0.0146009
          363     0.0146982
          364     0.0147955
          365     0.0148928
          366       0.01499
          367     0.0150871
          368     0.0151842
          369     0.0152812
          370     0.0153782
          371      0.015475
          372     0.0155718
          373     0.0156685
          374     0.0157651
          375     0.0158616
          376      0.015958
          377     0.0160543
          378     0.0161505
          379     0.0162466
          380     0.0163425
          381     0.0164383
          382      0.016534
          383     0.0166296
          384      0.016725
          385     0.0168202
          386     0.0169154
          387     0.0170104
          388     0.0171052
          389     0.0171998
          390     0.0172943
          391     0.0173887
          392     0.0174828
          393     0.0175768
          394     0.0176706
          395     0.0177643
          396     0.0178577
          397      0.017951
          398      0.018044
          399     0.0181369
          400     0.0182295
          401      0.018322
          402     0.0184143
          403     0.0185063
          404     0.0185981
          405     0.0186898
          406     0.0187812
          407     0.0188723
          408     0.0189633
          409      0.019054
          410     0.0191445
          411     0.0192348
          412     0.0193248
          413     0.0194146
          414     0.0195041
          415     0.0195934
          416     0.0196825
          417     0.0197713
          418     0.0198598
          419     0.0199481
          420     0.0200362
          421     0.0201239
          422     0.0202115
          423     0.0202987
          424     0.0203857
          425     0.0204724
          426     0.0205589
          427     0.0206451
          428      0.020731
          429     0.0208166
          430      0.020902
          431     0.0209871
          432     0.0210719
          433     0.0211564
          434     0.0212407
          435     0.0213246
          436     0.0214083
          437     0.0214917
          438     0.0215748
          439     0.0216576
          440     0.0217401
          441     0.0218223
          442     0.0219042
          443     0.0219858
          444     0.0220672
          445     0.0221482
          446     0.0222289
          447     0.0223094
          448     0.0223895
          449     0.0224694
          450     0.0225489
          451     0.0226281
          452      0.022707
          453     0.0227857
          454      0.022864
          455      0.022942
          456     0.0230197
          457     0.0230971
          458     0.0231742
          459     0.0232509
          460     0.0233274
          461     0.0234036
          462     0.0234794
          463     0.0235549
          464     0.0236302
          465     0.0237051
          466     0.0237797
          467      0.023854
          468      0.023928
          469     0.0240016
          470      0.024075
          471      0.024148
          472     0.0242207
          473     0.0242932
          474     0.0243653
          475     0.0244371
          476     0.0245085
          477     0.0245797
          478     0.0246506
          479     0.0247211
          480     0.0247914
          481     0.0248613
          482     0.0249309
          483     0.0250002
          484     0.0250692
          485     0.0251378
          486     0.0252062
          487     0.0252743
          488      0.025342
          489     0.0254094
          490     0.0254766
          491     0.0255434
          492     0.0256099
          493     0.0256761
          494      0.025742
          495     0.0258076
          496     0.0258728
          497     0.0259378
          498     0.0260025
          499     0.0260668
          500     0.0261309
          501     0.0261947
          502     0.0262581
          503     0.0263212
          504     0.0263841
          505     0.0264466
          506     0.0265089
          507     0.0265708
          508     0.0266325
          509     0.0266938
          510     0.0267549
          511     0.0268156
          512     0.0268761
          513     0.0269362
          514     0.0269961
          515     0.0270557
          516      0.027115
          517     0.0271739
          518     0.0272326
          519      0.027291
          520     0.0273492
          521      0.027407
          522     0.0274645
          523     0.0275218
          524     0.0275788
          525     0.0276354
          526     0.0276918
          527     0.0277479
          528     0.0278038
          529     0.0278593
          530     0.0279146
          531     0.0279696
          532     0.0280243
          533     0.0280787
          534     0.0281329
          535     0.0281868
          536     0.0282404
          537     0.0282937
          538     0.0283468
          539     0.0283996
          540     0.0284521
          541     0.0285044
          542     0.0285564
          543     0.0286081
          544     0.0286595
          545     0.0287107
          546     0.0287616
          547     0.0288123
          548     0.0288627
          549     0.0289128
          550     0.0289627
          551     0.0290123
          552     0.0290617
          553     0.0291108
          554     0.0291597
          555     0.0292083
          556     0.0292566
          557     0.0293047
          558     0.0293525
          559     0.0294001
          560     0.0294475
          561     0.0294946
          562     0.0295414
          563      0.029588
          564     0.0296344
          565     0.0296805
          566     0.0297264
          567      0.029772
          568     0.0298174
          569     0.0298626
          570     0.0299075
          571     0.0299522
          572     0.0299966
          573     0.0300408
          574     0.0300848
          575     0.0301286
          576     0.0301721
          577     0.0302154
          578     0.0302584
          579     0.0303012
          580     0.0303438
          581     0.0303862
          582     0.0304284
          583     0.0304703
          584      0.030512
          585     0.0305535
          586     0.0305948
          587     0.0306358
          588     0.0306767
          589     0.0307173
          590     0.0307577
          591     0.0307979
          592     0.0308378
          593     0.0308776
          594     0.0309171
          595     0.0309565
          596     0.0309956
          597     0.0310345
          598     0.0310732
          599     0.0311118
          600     0.0311501
          601     0.0311882
          602     0.0312261
          603     0.0312638
          604     0.0313013
          605     0.0313386
          606     0.0313757
          607     0.0314126
          608     0.0314493
          609     0.0314858
          610     0.0315221
          611     0.0315582
          612     0.0315942
          613     0.0316299
          614     0.0316655
          615     0.0317008
          616      0.031736
          617      0.031771
          618     0.0318058
          619     0.0318404
          620     0.0318748
          621     0.0319091
          622     0.0319432
          623     0.0319771
          624     0.0320108
          625     0.0320443
          626     0.0320776
          627     0.0321108
          628     0.0321438
          629     0.0321767
          630     0.0322093
          631     0.0322418
          632     0.0322741
          633     0.0323062
          634     0.0323382
          635       0.03237
          636     0.0324016
          637     0.0324331
          638     0.0324644
          639     0.0324955
          640     0.0325265
          641     0.0325573
          642     0.0325879
          643     0.0326184
          644     0.0326487
          645     0.0326789
          646     0.0327089
          647     0.0327387
          648     0.0327684
          649     0.0327979
          650     0.0328273
          651     0.0328565
          652     0.0328856
          653     0.0329145
          654     0.0329432
          655     0.0329718
          656     0.0330003
          657     0.0330286
          658     0.0330568
          659     0.0330848
          660     0.0331127
          661     0.0331404
          662      0.033168
          663     0.0331954
          664     0.0332227
          665     0.0332498
          666     0.0332768
          667     0.0333037
          668     0.0333304
          669      0.033357
          670     0.0333834
          671     0.0334097
          672     0.0334359
          673      0.033462
          674     0.0334879
          675     0.0335136
          676     0.0335393
          677     0.0335647
          678     0.0335901
          679     0.0336154
          680     0.0336405
          681     0.0336654
          682     0.0336903
          683      0.033715
          684     0.0337396
          685      0.033764
          686     0.0337884
          687     0.0338126
          688     0.0338367
          689     0.0338606
          690     0.0338845
          691     0.0339082
          692     0.0339318
          693     0.0339553
          694     0.0339786
          695     0.0340019
          696      0.034025
          697      0.034048
          698     0.0340708
          699     0.0340936
          700     0.0341163
          701     0.0341388
          702     0.0341612
          703     0.0341835
          704     0.0342057
          705     0.0342278
          706     0.0342497
          707     0.0342716
          708     0.0342933
          709     0.0343149
          710     0.0343365
          711     0.0343579
          712     0.0343792
          713     0.0344004
          714     0.0344215
          715     0.0344425
          716     0.0344633
          717     0.0344841
          718     0.0345048
          719     0.0345253
          720     0.0345458
          721     0.0345661
          722     0.0345864
          723     0.0346065
          724     0.0346266
          725     0.0346466
          726     0.0346664
          727     0.0346862
          728     0.0347058
          729     0.0347254
          730     0.0347448
          731     0.0347642
          732     0.0347834
          733     0.0348026
          734     0.0348217
          735     0.0348407
          736     0.0348596
          737     0.0348783
          738      0.034897
          739     0.0349156
          740     0.0349342
          741     0.0349526
          742     0.0349709
          743     0.0349892
          744     0.0350073
          745     0.0350254
          746     0.0350433
          747     0.0350612
          748      0.035079
          749     0.0350967
          750     0.0351144
          751     0.0351319
          752     0.0351493
          753     0.0351667
          754      0.035184
          755     0.0352012
          756     0.0352183
          757     0.0352353
          758     0.0352523
          759     0.0352691
          760     0.0352859
          761     0.0353026
          762     0.0353192
          763     0.0353358
          764     0.0353522
          765     0.0353686
          766     0.0353849
          767     0.0354011
          768     0.0354173
          769     0.0354333
          770     0.0354493
          771     0.0354653
          772     0.0354811
          773     0.0354968
          774     0.0355125
          775     0.0355281
          776     0.0355437
          777     0.0355591
          778     0.0355745
          779     0.0355898
          780     0.0356051
          781     0.0356202
          782     0.0356353
          783     0.0356504
          784     0.0356653
          785     0.0356802
          786      0.035695
          787     0.0357097
          788     0.0357244
          789      0.035739
          790     0.0357536
          791      0.035768
          792     0.0357824
          793     0.0357967
          794      0.035811
          795     0.0358252
          796     0.0358393
          797     0.0358534
          798     0.0358674
          799     0.0358813
          800     0.0358952
          801      0.035909
          802     0.0359227
          803     0.0359364
          804       0.03595
          805     0.0359635
          806      0.035977
          807     0.0359904
          808     0.0360038
          809     0.0360171
          810     0.0360303
          811     0.0360435
          812     0.0360566
          813     0.0360697
          814     0.0360827
          815     0.0360956
          816     0.0361085
          817     0.0361213
          818      0.036134
          819     0.0361467
          820     0.0361594
          821      0.036172
          822     0.0361845
          823     0.0361969
          824     0.0362093
          825     0.0362217
          826      0.036234
          827     0.0362462
          828     0.0362584
          829     0.0362705
          830     0.0362826
          831     0.0362946
          832     0.0363066
          833     0.0363185
          834     0.0363304
          835     0.0363422
          836     0.0363539
          837     0.0363656
          838     0.0363773
          839     0.0363889
          840     0.0364004
          841     0.0364119
          842     0.0364233
          843     0.0364347
          844     0.0364461
          845     0.0364573
          846     0.0364686
          847     0.0364798
          848     0.0364909
          849      0.036502
          850      0.036513
          851      0.036524
          852     0.0365349
          853     0.0365458
          854     0.0365567
          855     0.0365675
          856     0.0365782
          857     0.0365889
          858     0.0365996
          859     0.0366102
          860     0.0366207
          861     0.0366312
          862     0.0366417
          863     0.0366521
          864     0.0366625
          865     0.0366728
          866     0.0366831
          867     0.0366934
          868     0.0367036
          869     0.0367137
          870     0.0367238
          871     0.0367339
          872     0.0367439
          873     0.0367539
          874     0.0367638
          875     0.0367737
          876     0.0367835
          877     0.0367933
          878     0.0368031
          879     0.0368128
          880     0.0368225
          881     0.0368321
          882     0.0368417
          883     0.0368513
          884     0.0368608
          885     0.0368703
          886     0.0368797
          887     0.0368891
          888     0.0368984
          889     0.0369077
          890      0.036917
          891     0.0369262
          892     0.0369354
          893     0.0369446
          894     0.0369537
          895     0.0369628
          896     0.0369718
          897     0.0369808
          898     0.0369898
          899     0.0369987
          900     0.0370076
          901     0.0370164
          902     0.0370253
          903      0.037034
          904     0.0370428
          905     0.0370515
          906     0.0370601
          907     0.0370688
          908     0.0370773
          909     0.0370859
          910     0.0370944
          911     0.0371029
          912     0.0371114
          913     0.0371198
          914     0.0371282
          915     0.0371365
          916     0.0371448
          917     0.0371531
          918     0.0371613
          919     0.0371695
          920     0.0371777
          921     0.0371858
          922      0.037194
          923      0.037202
          924     0.0372101
          925     0.0372181
          926      0.037226
          927      0.037234
          928     0.0372419
          929     0.0372498
          930     0.0372576
          931     0.0372654
          932     0.0372732
          933      0.037281
          934     0.0372887
          935     0.0372964
          936      0.037304
          937     0.0373116
          938     0.0373192
          939     0.0373268
          940     0.0373343
          941     0.0373418
          942     0.0373493
          943     0.0373567
          944     0.0373642
          945     0.0373715
          946     0.0373789
          947     0.0373862
          948     0.0373935
          949     0.0374008
          950      0.037408
          951     0.0374152
          952     0.0374224
          953     0.0374295
          954     0.0374366
          955     0.0374437
          956     0.0374508
          957     0.0374578
          958     0.0374648
          959     0.0374718
          960     0.0374788
          961     0.0374857
          962     0.0374926
          963     0.0374995
          964     0.0375063
          965     0.0375131
          966     0.0375199
          967     0.0375267
          968     0.0375334
          969     0.0375401
          970     0.0375468
          971     0.0375535
          972     0.0375601
          973     0.0375667
          974     0.0375733
          975     0.0375798
          976     0.0375864
          977     0.0375929
          978     0.0375993
          979     0.0376058
          980     0.0376122
          981     0.0376186
          982      0.037625
          983     0.0376313
          984     0.0376377
          985      0.037644
          986     0.0376503
          987     0.0376565
          988     0.0376627
          989      0.037669
          990     0.0376751
          991     0.0376813
          992     0.0376874
          993     0.0376935
          994     0.0376996
          995     0.0377057
          996     0.0377117
          997     0.0377178
          998     0.0377238
          999     0.0377297
         1000     0.0377357
         1001     0.0377416
         1002     0.0377475
         1003     0.0377534
         1004     0.0377593
         1005     0.0377651
         1006     0.0377709
         1007     0.0377767
         1008     0.0377825
         1009     0.0377883
         1010      0.037794
         1011     0.0377997
         1012     0.0378054
         1013      0.037811
         1014     0.0378167
         1015     0.0378223
         1016     0.0378279
         1017     0.0378335
         1018     0.0378391
         1019     0.0378446
         1020     0.0378501
         1021     0.0378556
         1022     0.0378611
         1023     0.0378666
         1024      0.037872
         1025     0.0378774
         1026     0.0378828
         1027     0.0378882
         1028     0.0378936
         1029     0.0378989
         1030     0.0379042
         1031     0.0379095
         1032     0.0379148
         1033     0.0379201
         1034     0.0379253
         1035     0.0379305
         1036     0.0379357
         1037     0.0379409
         1038     0.0379461
         1039     0.0379512
         1040     0.0379563
         1041     0.0379615
         1042     0.0379665
         1043     0.0379716
         1044     0.0379767
         1045     0.0379817
         1046     0.0379867
         1047     0.0379917
         1048     0.0379967
         1049     0.0380017
         1050     0.0380066
         1051     0.0380115
         1052     0.0380164
         1053     0.0380213
         1054     0.0380262
         1055     0.0380311
         1056     0.0380359
         1057     0.0380407
         1058     0.0380455
         1059     0.0380503
         1060     0.0380551
         1061     0.0380598
         1062     0.0380646
         1063     0.0380693
         1064      0.038074
         1065     0.0380787
         1066     0.0380833
         1067      0.038088
         1068     0.0380926