# Probe 0 (0.05 0.05 0.005)
#       Probe             0
#        Time
            1          0.04
            2          0.04
            3          0.04
            4          0.04
            5          0.04
            6          0.04
            7          0.04
            8          0.04
            9          0.04
           10          0.04
           11          0.04
           12          0.04
           13     0.0399999
           14     0.0399999
           15     0.0399999
           16     0.0399999
           17     0.0399999
           18     0.0399998
           19     0.0399998
           20     0.0399998
           21     0.0399997
           22     0.0399997
           23     0.0399996
           24     0.0399995
           25     0.0399994
           26     0.0399994
           27     0.0399993
           28     0.0399991
           29      0.039999
           30     0.0399989
           31     0.0399987
           32     0.0399985
           33     0.0399983
           34     0.0399981
           35     0.0399979
           36     0.0399977
           37     0.0399974
           38     0.0399971
           39     0.0399968
           40     0.0399964
           41     0.0399961
           42     0.0399957
           43     0.0399952
           44     0.0399948
           45     0.0399943
           46     0.0399937
           47     0.0399932
           48     0.0399926
           49     0.0399919
           50     0.0399913
           51     0.0399905
           52     0.0399898
           53      0.039989
           54     0.0399881
           55     0.0399872
           56     0.0399862
           57     0.0399852
           58     0.0399842
           59      0.039983
           60     0.0399819
           61     0.0399806
           62     0.0399793
           63     0.0399779
           64     0.0399765
           65      0.039975
           66     0.0399734
           67     0.0399718
           68       0.03997
           69     0.0399682
           70     0.0399663
           71     0.0399644
           72     0.0399623
           73     0.0399602
           74     0.0399579
           75     0.0399556
           76     0.0399532
           77     0.0399507
           78     0.0399481
           79     0.0399454
           80     0.0399425
           81     0.0399396
           82     0.0399366
           83     0.0399334
           84     0.0399301
           85     0.0399268
           86     0.0399232
           87     0.0399196
           88     0.0399159
           89      0.039912
           90     0.0399079
           91     0.0399038
           92     0.0398995
           93      0.039895
           94     0.0398905
           95     0.0398857
           96     0.0398808
           97     0.0398758
           98     0.0398706
           99     0.0398653
          100     0.0398597
          101     0.0398541
          102     0.0398482
          103     0.0398422
          104      0.039836
          105     0.0398296
          106      0.039823
          107     0.0398163
          108     0.0398093
          109     0.0398022
          110     0.0397949
          111     0.0397873
          112     0.0397796
          113     0.0397716
          114     0.0397635
          115     0.0397551
          116     0.0397465
          117     0.0397377
          118     0.0397287
          119     0.0397194
          120     0.0397099
          121     0.0397002
          122     0.0396902
          123       0.03968
          124     0.0396696
          125     0.0396589
          126     0.0396479
          127     0.0396367
          128     0.0396252
          129     0.0396135
          130     0.0396015
          131     0.0395892
          132     0.0395766
          133     0.0395638
          134     0.0395506
          135     0.0395372
          136     0.0395235
          137     0.0395095
          138     0.0394952
          139     0.0394806
          140     0.0394657
          141     0.0394505
          142      0.039435
          143     0.0394191
          144     0.0394029
          145     0.0393864
          146     0.0393696
          147     0.0393524
          148     0.0393349
          149     0.0393171
          150     0.0392989
          151     0.0392804
          152     0.0392615
          153     0.0392422
          154     0.0392226
          155     0.0392027
          156     0.0391823
          157     0.0391616
          158     0.0391405
          159     0.0391191
          160     0.0390972
          161      0.039075
          162     0.0390524
          163     0.0390294
          164     0.0390059
          165     0.0389821
          166     0.0389579
          167     0.0389333
          168     0.0389083
          169     0.0388828
          170     0.0388569
          171     0.0388306
          172     0.0388039
          173     0.0387768
          174     0.0387492
          175     0.0387212
          176     0.0386927
          177     0.0386638
          178     0.0386345
          179     0.0386047
          180     0.0385744
          181     0.0385437
          182     0.0385126
          183      0.038481
          184     0.0384489
          185     0.0384163
          186     0.0383833
          187     0.0383498
          188     0.0383159
          189     0.0382814
          190     0.0382465
          191     0.0382111
          192     0.0381752
          193     0.0381388
          194     0.0381019
          195     0.0380645
          196     0.0380266
          197     0.0379883
          198     0.0379494
          199       0.03791
          200     0.0378701
          201     0.0378297
          202     0.0377888
          203     0.0377474
          204     0.0377055
          205      0.037663
          206     0.0376201
          207     0.0375766
          208     0.0375326
          209      0.037488
          210      0.037443
          211     0.0373974
          212     0.0373513
          213     0.0373047
          214     0.0372575
          215     0.0372098
          216     0.0371616
          217     0.0371128
          218     0.0370635
          219     0.0370137
          220     0.0369633
          221     0.0369124
          222     0.0368609
          223     0.0368089
          224     0.0367564
          225     0.0367034
          226     0.0366498
          227     0.0365956
          228     0.0365409
          229     0.0364857
          230     0.0364299
          231     0.0363736
          232     0.0363168
          233     0.0362594
          234     0.0362015
          235      0.036143
          236      0.036084
          237     0.0360245
          238     0.0359644
          239     0.0359038
          240     0.0358427
          241      0.035781
          242     0.0357188
          243      0.035656
          244     0.0355928
          245      0.035529
          246     0.0354646
          247     0.0353998
          248     0.0353344
          249     0.0352685
          250     0.0352021
          251     0.0351351
          252     0.0350677
          253     0.0349997
          254     0.0349312
          255     0.0348622
          256     0.0347927
          257     0.0347226
          258     0.0346521
          259     0.0345811
          260     0.0345096
          261     0.0344375
          262      0.034365
          263      0.034292
          264     0.0342185
          265     0.0341446
          266     0.0340701
          267     0.0339952
          268     0.0339198
          269     0.0338439
          270     0.0337675
          271     0.0336907
          272     0.0336135
          273     0.0335357
          274     0.0334576
          275     0.0333789
          276     0.0332999
          277     0.0332203
          278     0.0331404
          279       0.03306
          280     0.0329792
          281      0.032898
          282     0.0328163
          283     0.0327342
          284     0.0326518
          285     0.0325689
          286     0.0324856
          287     0.0324019
          288     0.0323178
          289     0.0322334
          290     0.0321485
          291     0.0320633
          292     0.0319777
          293     0.0318917
          294     0.0318054
          295     0.0317187
          296     0.0316317
          297     0.0315443
          298     0.0314566
          299     0.0313686
          300     0.0312802
          301     0.0311915
          302     0.0311024
          303     0.0310131
          304     0.0309235
          305     0.0308335
          306     0.0307433
          307     0.0306527
          308     0.0305619
          309     0.0304708
          310     0.0303794
          311     0.0302878
          312     0.0301959
          313     0.0301037
          314     0.0300113
          315     0.0299186
          316     0.0298258
          317     0.0297326
          318     0.0296393
          319     0.0295457
          320     0.0294519
          321     0.0293579
          322     0.0292637
          323     0.0291693
          324     0.0290747
          325       0.02898
          326      0.028885
          327     0.0287899
          328     0.0286946
          329     0.0285992
          330     0.0285036
          331     0.0284078
          332      0.028312
          333     0.0282159
          334     0.0281198
          335     0.0280235
          336     0.0279271
          337     0.0278306
          338      0.027734
          339     0.0276373
          340     0.0275405
          341     0.0274436
          342     0.0273466
          343     0.0272496
          344     0.0271525
          345     0.0270553
          346     0.0269581
          347     0.0268608
          348     0.0267634
          349     0.0266661
          350     0.0265687
          351     0.0264712
          352     0.0263738
          353     0.0262763
          354     0.0261788
          355     0.0260813
          356     0.0259838
          357     0.0258863
          358     0.0257888
          359     0.0256914
          360     0.0255939
          361     0.0254965
          362     0.0253991
          363     0.0253018
          364     0.0252045
          365     0.0251072
          366       0.02501
          367     0.0249128
          368     0.0248158
          369     0.0247187
          370     0.0246218
          371     0.0245249
          372     0.0244282
          373     0.0243315
          374     0.0242349
          375     0.0241384
          376      0.024042
          377     0.0239457
          378     0.0238495
          379     0.0237534
          380     0.0236575
          381     0.0235617
          382      0.023466
          383     0.0233704
          384      0.023275
          385     0.0231797
          386     0.0230846
          387     0.0229896
          388     0.0228948
          389     0.0228001
          390     0.0227056
          391     0.0226113
          392     0.0225172
          393     0.0224232
          394     0.0223294
          395     0.0222357
          396     0.0221423
          397      0.022049
          398      0.021956
          399     0.0218631
          400     0.0217704
          401      0.021678
          402     0.0215857
          403     0.0214937
          404     0.0214018
          405     0.0213102
          406     0.0212188
          407     0.0211277
          408     0.0210367
          409      0.020946
          410     0.0208555
          411     0.0207652
          412     0.0206752
          413     0.0205854
          414     0.0204959
          415     0.0204066
          416     0.0203175
          417     0.0202287
          418     0.0201402
          419     0.0200519
          420     0.0199638
          421      0.019876
          422     0.0197885
          423     0.0197013
          424     0.0196143
          425     0.0195275
          426     0.0194411
          427     0.0193549
          428      0.019269
          429     0.0191833
          430      0.019098
          431     0.0190129
          432     0.0189281
          433     0.0188436
          434     0.0187593
          435     0.0186754
          436     0.0185917
          437     0.0185083
          438     0.0184252
          439     0.0183424
          440     0.0182599
          441     0.0181777
          442     0.0180958
          443     0.0180141
          444     0.0179328
          445     0.0178518
          446      0.017771
          447     0.0176906
          448     0.0176105
          449     0.0175306
          450     0.0174511
          451     0.0173719
          452     0.0172929
          453     0.0172143
          454      0.017136
          455      0.017058
          456     0.0169803
          457     0.0169029
          458     0.0168258
          459     0.0167491
          460     0.0166726
          461     0.0165964
          462     0.0165206
          463      0.016445
          464     0.0163698
          465     0.0162949
          466     0.0162203
          467      0.016146
          468      0.016072
          469     0.0159984
          470      0.015925
          471      0.015852
          472     0.0157792
          473     0.0157068
          474     0.0156347
          475     0.0155629
          476     0.0154914
          477     0.0154203
          478     0.0153494
          479     0.0152789
          480     0.0152086
          481     0.0151387
          482     0.0150691
          483     0.0149998
          484     0.0149308
          485     0.0148621
          486     0.0147938
          487     0.0147257
          488      0.014658
          489     0.0145905
          490     0.0145234
          491     0.0144566
          492     0.0143901
          493     0.0143239
          494      0.014258
          495     0.0141924
          496     0.0141271
          497     0.0140622
          498     0.0139975
          499     0.0139331
          500     0.0138691
          501     0.0138053
          502     0.0137419
          503     0.0136787
          504     0.0136159
          505     0.0135533
          506     0.0134911
          507     0.0134292
          508     0.0133675
          509     0.0133062
          510     0.0132451
          511     0.0131844
          512     0.0131239
          513     0.0130637
          514     0.0130039
          515     0.0129443
          516      0.012885
          517      0.012826
          518     0.0127673
          519     0.0127089
          520     0.0126508
          521      0.012593
          522     0.0125355
          523     0.0124782
          524     0.0124212
          525     0.0123645
          526     0.0123082
          527      0.012252
          528     0.0121962
          529     0.0121407
          530     0.0120854
          531     0.0120304
          532     0.0119757
          533     0.0119212
          534     0.0118671
          535     0.0118132
          536     0.0117596
          537     0.0117062
          538     0.0116532
          539     0.0116004
          540     0.0115479
          541     0.0114956
          542     0.0114436
          543     0.0113919
          544     0.0113404
          545     0.0112893
          546     0.0112383
          547     0.0111877
          548     0.0111373
          549     0.0110871
          550     0.0110373
          551     0.0109876
          552     0.0109383
          553     0.0108892
          554     0.0108403
          555     0.0107917
          556     0.0107434
          557     0.0106953
          558     0.0106474
          559     0.0105998
          560     0.0105525
          561     0.0105054
          562     0.0104586
          563     0.0104119
          564     0.0103656
          565     0.0103195
          566     0.0102736
          567      0.010228
          568     0.0101826
          569     0.0101374
          570     0.0100925
          571     0.0100478
          572     0.0100034
          573    0.00995916
          574    0.00991518
          575    0.00987143
          576    0.00982792
          577    0.00978463
          578    0.00974157
          579    0.00969874
          580    0.00965614
          581    0.00961376
          582    0.00957161
          583    0.00952968
          584    0.00948797
          585    0.00944648
          586    0.00940521
          587    0.00936416
          588    0.00932333
          589    0.00928271
          590    0.00924231
          591    0.00920213
          592    0.00916216
          593     0.0091224
          594    0.00908285
          595    0.00904351
          596    0.00900438
          597    0.00896545
          598    0.00892674
          599    0.00888823
          600    0.00884992
          601    0.00881182
          602    0.00877392
          603    0.00873622
          604    0.00869872
          605    0.00866142
          606    0.00862432
          607    0.00858742
          608    0.00855071
          609     0.0085142
          610    0.00847788
          611    0.00844176
          612    0.00840582
          613    0.00837008
          614    0.00833453
          615    0.00829916
          616    0.00826399
          617      0.008229
          618    0.00819419
          619    0.00815958
          620    0.00812514
          621    0.00809089
          622    0.00805682
          623    0.00802293
          624    0.00798922
          625    0.00795569
          626    0.00792233
          627    0.00788916
          628    0.00785616
          629    0.00782333
          630    0.00779068
          631     0.0077582
          632    0.00772589
          633    0.00769376
          634    0.00766179
          635    0.00762999
          636    0.00759836
          637     0.0075669
          638    0.00753561
          639    0.00750448
          640    0.00747351
          641    0.00744271
          642    0.00741207
          643    0.00738159
          644    0.00735127
          645    0.00732112
          646    0.00729112
          647    0.00726128
          648    0.00723159
          649    0.00720207
          650     0.0071727
          651    0.00714348
          652    0.00711441
          653     0.0070855
          654    0.00705674
          655    0.00702813
          656    0.00699968
          657    0.00697137
          658    0.00694321
          659    0.00691519
          660    0.00688733
          661    0.00685961
          662    0.00683203
          663     0.0068046
          664    0.00677731
          665    0.00675016
          666    0.00672316
          667     0.0066963
          668    0.00666957
          669    0.00664299
          670    0.00661654
          671    0.00659024
          672    0.00656406
          673    0.00653803
          674    0.00651213
          675    0.00648636
          676    0.00646073
          677    0.00643523
          678    0.00640987
          679    0.00638463
          680    0.00635953
          681    0.00633455
          682    0.00630971
          683    0.00628499
          684     0.0062604
          685    0.00623594
          686     0.0062116
          687    0.00618739
          688     0.0061633
          689    0.00613934
          690     0.0061155
          691    0.00609178
          692    0.00606819
          693    0.00604472
          694    0.00602136
          695    0.00599813
          696    0.00597501
          697    0.00595202
          698    0.00592914
          699    0.00590637
          700    0.00588373
          701     0.0058612
          702    0.00583878
          703    0.00581648
          704    0.00579429
          705    0.00577222
          706    0.00575025
          707     0.0057284
          708    0.00570666
          709    0.00568503
          710    0.00566351
          711     0.0056421
          712     0.0056208
          713     0.0055996
          714    0.00557851
          715    0.00555753
          716    0.00553666
          717    0.00551588
          718    0.00549522
          719    0.00547466
          720     0.0054542
          721    0.00543384
          722    0.00541359
          723    0.00539343
          724    0.00537338
          725    0.00535343
          726    0.00533358
          727    0.00531383
          728    0.00529417
          729    0.00527462
          730    0.00525516
          731     0.0052358
          732    0.00521654
          733    0.00519737
          734    0.00517829
          735    0.00515931
          736    0.00514043
          737    0.00512164
          738    0.00510294
          739    0.00508434
          740    0.00506582
          741     0.0050474
          742    0.00502907
          743    0.00501083
          744    0.00499268
          745    0.00497462
          746    0.00495664
          747    0.00493876
          748    0.00492096
          749    0.00490325
          750    0.00488563
          751    0.00486809
          752    0.00485064
          753    0.00483328
          754      0.004816
          755     0.0047988
          756    0.00478169
          757    0.00476466
          758    0.00474771
          759    0.00473085
          760    0.00471407
          761    0.00469736
          762    0.00468074
          763    0.00466421
          764    0.00464775
          765    0.00463137
          766    0.00461507
          767    0.00459884
          768     0.0045827
          769    0.00456663
          770    0.00455064
          771    0.00453473
          772     0.0045189
          773    0.00450314
          774    0.00448745
          775    0.00447184
          776    0.00445631
          777    0.00444085
          778    0.00442546
          779    0.00441015
          780    0.00439491
          781    0.00437974
          782    0.00436465
          783    0.00434962
          784    0.00433467
          785    0.00431979
          786    0.00430498
          787    0.00429024
          788    0.00427556
          789    0.00426096
          790    0.00424643
          791    0.00423196
          792    0.00421757
          793    0.00420324
          794    0.00418898
          795    0.00417478
          796    0.00416066
          797    0.00414659
          798     0.0041326
          799    0.00411867
          800     0.0041048
          801      0.004091
          802    0.00407727
          803    0.00406359
          804    0.00404998
          805    0.00403644
          806    0.00402296
          807    0.00400954
          808    0.00399618
          809    0.00398288
          810    0.00396965
          811    0.00395648
          812    0.00394336
          813    0.00393031
          814    0.00391732
          815    0.00390439
          816    0.00389151
          817     0.0038787
          818    0.00386595
          819    0.00385325
          820    0.00384061
          821    0.00382803
          822    0.00381551
          823    0.00380304
          824    0.00379063
          825    0.00377828
          826    0.00376599
          827    0.00375375
          828    0.00374156
          829    0.00372943
          830    0.00371736
          831    0.00370534
          832    0.00369337
          833    0.00368146
          834    0.00366961
          835     0.0036578
          836    0.00364605
          837    0.00363435
          838    0.00362271
          839    0.00361112
          840    0.00359957
          841    0.00358809
          842    0.00357665
          843    0.00356526
          844    0.00355393
          845    0.00354264
          846    0.00353141
          847    0.00352022
          848    0.00350909
          849      0.003498
          850    0.00348696
          851    0.00347598
          852    0.00346504
          853    0.00345415
          854    0.00344331
          855    0.00343251
          856    0.00342177
          857    0.00341107
          858    0.00340042
          859    0.00338981
          860    0.00337925
          861    0.00336874
          862    0.00335827
          863    0.00334785
          864    0.00333748
          865    0.00332715
          866    0.00331687
          867    0.00330663
          868    0.00329643
          869    0.00328628
          870    0.00327618
          871    0.00326611
          872    0.00325609
          873    0.00324612
          874    0.00323619
          875     0.0032263
          876    0.00321645
          877    0.00320665
          878    0.00319689
          879    0.00318717
          880    0.00317749
          881    0.00316786
          882    0.00315826
          883    0.00314871
          884     0.0031392
          885    0.00312972
          886    0.00312029
          887     0.0031109
          888    0.00310155
          889    0.00309224
          890    0.00308297
          891    0.00307374
          892    0.00306454
          893    0.00305539
          894    0.00304628
          895     0.0030372
          896    0.00302816
          897    0.00301916
          898     0.0030102
          899    0.00300128
          900    0.00299239
          901    0.00298354
          902    0.00297473
          903    0.00296596
          904    0.00295722
          905    0.00294852
          906    0.00293986
          907    0.00293123
          908    0.00292264
          909    0.00291408
          910    0.00290556
          911    0.00289707
          912    0.00288862
          913    0.00288021
          914    0.00287183
          915    0.00286348
          916    0.00285517
          917     0.0028469
          918    0.00283866
          919    0.00283045
          920    0.00282228
          921    0.00281414
          922    0.00280603
          923    0.00279796
          924    0.00278992
          925    0.00278191
          926    0.00277393
          927    0.00276599
          928    0.00275808
          929    0.00275021
          930    0.00274236
          931    0.00273455
          932    0.00272677
          933    0.00271902
          934     0.0027113
          935    0.00270362
          936    0.00269596
          937    0.00268834
          938    0.00268075
          939    0.00267318
          940    0.00266565
          941    0.00265815
          942    0.00265068
          943    0.00264324
          944    0.00263583
          945    0.00262845
          946     0.0026211
          947    0.00261377
          948    0.00260648
          949    0.00259922
          950    0.00259198
          951    0.00258478
          952     0.0025776
          953    0.00257045
          954    0.00256333
          955    0.00255624
          956    0.00254918
          957    0.00254214
          958    0.00253514
          959    0.00252816
          960    0.00252121
          961    0.00251428
          962    0.00250739
          963    0.00250052
          964    0.00249367
          965    0.00248686
          966    0.00248007
          967    0.00247331
          968    0.00246657
          969    0.00245986
          970    0.00245318
          971    0.00244652
          972    0.00243989
          973    0.00243329
          974    0.00242671
          975    0.00242015
          976    0.00241363
          977    0.00240712
          978    0.00240065
          979    0.00239419
          980    0.00238777
          981    0.00238136
          982    0.00237499
          983    0.00236863
          984    0.00236231
          985      0.002356
          986    0.00234972
          987    0.00234347
          988    0.00233724
          989    0.00233103
          990    0.00232484
          991    0.00231868
          992    0.00231255
          993    0.00230644
          994    0.00230035
          995    0.00229428
          996    0.00228824
          997    0.00228222
          998    0.00227622
          999    0.00227024
         1000    0.00226429
         1001    0.00225836
         1002    0.00225246
         1003    0.00224657
         1004    0.00224071
         1005    0.00223487
         1006    0.00222905
         1007    0.00222326
         1008    0.00221748
         1009    0.00221173
         1010      0.002206
         1011    0.00220029
         1012     0.0021946
         1013    0.00218894
         1014    0.00218329
         1015    0.00217767
         1016    0.00217206
         1017    0.00216648
         1018    0.00216092
         1019    0.00215538
         1020    0.00214986
         1021    0.00214436
         1022    0.00213888
         1023    0.00213342
         1024    0.00212798
         1025    0.00212257
         1026    0.00211717
         1027    0.00211179
         1028    0.00210643
         1029    0.00210109
         1030    0.00209577
         1031    0.00209047
         1032    0.00208519
         1033    0.00207993
         1034    0.00207469
         1035    0.00206947
         1036    0.00206426
         1037    0.00205908
         1038    0.00205392
         1039    0.00204877
         1040    0.00204364
         1041    0.00203853
         1042    0.00203344
         1043    0.00202837
         1044    0.00202332
         1045    0.00201828
         1046    0.00201327
         1047    0.00200827
         1048    0.00200329
         1049    0.00199832
         1050    0.00199338
         1051    0.00198845
         1052    0.00198354
         1053    0.00197865
         1054    0.00197378
         1055    0.00196892
         1056    0.00196408
         1057    0.00195926
         1058    0.00195446
         1059    0.00194967
         1060     0.0019449
         1061    0.00194015
         1062    0.00193541
         1063    0.00193069
         1064    0.00192599
         1065     0.0019213
         1066    0.00191663
         1067    0.00191198
         1068    0.00190735