# Probe 0 (0.05 0.05 0.005)
#       Probe             0
#        Time
            1          0.04
            2          0.04
            3          0.04
            4          0.04
            5          0.04
            6          0.04
            7          0.04
            8          0.04
            9          0.04
           10          0.04
           11          0.04
           12          0.04
           13          0.04
           14     0.0399999
           15     0.0399999
           16     0.0399999
           17     0.0399999
           18     0.0399998
           19     0.0399998
           20     0.0399998
           21     0.0399997
           22     0.0399997
           23     0.0399996
           24     0.0399995
           25     0.0399995
           26     0.0399994
           27     0.0399993
           28     0.0399991
           29      0.039999
           30     0.0399989
           31     0.0399987
           32     0.0399985
           33     0.0399984
           34     0.0399981
           35     0.0399979
           36     0.0399977
           37     0.0399974
           38     0.0399971
           39     0.0399968
           40     0.0399964
           41     0.0399961
           42     0.0399957
           43     0.0399952
           44     0.0399948
           45     0.0399943
           46     0.0399938
           47     0.0399932
           48     0.0399926
           49      0.039992
           50     0.0399913
           51     0.0399906
           52     0.0399898
           53      0.039989
           54     0.0399881
           55     0.0399872
           56     0.0399862
           57     0.0399852
           58     0.0399842
           59      0.039983
           60     0.0399819
           61     0.0399806
           62     0.0399793
           63     0.0399779
           64     0.0399765
           65      0.039975
           66     0.0399734
           67     0.0399718
           68       0.03997
           69     0.0399682
           70     0.0399664
           71     0.0399644
           72     0.0399623
           73     0.0399602
           74      0.039958
           75     0.0399556
           76     0.0399532
           77     0.0399507
           78     0.0399481
           79     0.0399454
           80     0.0399425
           81     0.0399396
           82     0.0399366
           83     0.0399334
           84     0.0399302
           85     0.0399268
           86     0.0399233
           87     0.0399196
           88     0.0399159
           89      0.039912
           90     0.0399079
           91     0.0399038
           92     0.0398995
           93     0.0398951
           94     0.0398905
           95     0.0398857
           96     0.0398809
           97     0.0398758
           98     0.0398706
           99     0.0398653
          100     0.0398597
          101     0.0398541
          102     0.0398482
          103     0.0398422
          104      0.039836
          105     0.0398296
          106      0.039823
          107     0.0398163
          108     0.0398093
          109     0.0398022
          110     0.0397949
          111     0.0397873
          112     0.0397796
          113     0.0397716
          114     0.0397635
          115     0.0397551
          116     0.0397465
          117     0.0397377
          118     0.0397287
          119     0.0397194
          120       0.03971
          121     0.0397002
          122     0.0396903
          123       0.03968
          124     0.0396696
          125     0.0396589
          126     0.0396479
          127     0.0396367
          128     0.0396252
          129     0.0396135
          130     0.0396015
          131     0.0395892
          132     0.0395766
          133     0.0395638
          134     0.0395507
          135     0.0395372
          136     0.0395235
          137     0.0395095
          138     0.0394952
          139     0.0394806
          140     0.0394657
          141     0.0394505
          142      0.039435
          143     0.0394191
          144     0.0394029
          145     0.0393864
          146     0.0393696
          147     0.0393524
          148     0.0393349
          149     0.0393171
          150     0.0392989
          151     0.0392804
          152     0.0392615
          153     0.0392422
          154     0.0392226
          155     0.0392027
          156     0.0391823
          157     0.0391616
          158     0.0391405
          159     0.0391191
          160     0.0390972
          161      0.039075
          162     0.0390524
          163     0.0390294
          164      0.039006
          165     0.0389821
          166     0.0389579
          167     0.0389333
          168     0.0389083
          169     0.0388828
          170     0.0388569
          171     0.0388306
          172     0.0388039
          173     0.0387768
          174     0.0387492
          175     0.0387212
          176     0.0386927
          177     0.0386638
          178     0.0386345
          179     0.0386047
          180     0.0385745
          181     0.0385438
          182     0.0385126
          183      0.038481
          184     0.0384489
          185     0.0384163
          186     0.0383833
          187     0.0383498
          188     0.0383159
          189     0.0382814
          190     0.0382465
          191     0.0382111
          192     0.0381752
          193     0.0381388
          194     0.0381019
          195     0.0380645
          196     0.0380266
          197     0.0379883
          198     0.0379494
          199       0.03791
          200     0.0378701
          201     0.0378297
          202     0.0377888
          203     0.0377474
          204     0.0377055
          205      0.037663
          206     0.0376201
          207     0.0375766
          208     0.0375326
          209     0.0374881
          210      0.037443
          211     0.0373974
          212     0.0373513
          213     0.0373047
          214     0.0372575
          215     0.0372098
          216     0.0371616
          217     0.0371128
          218     0.0370635
          219     0.0370137
          220     0.0369633
          221     0.0369124
          222     0.0368609
          223      0.036809
          224     0.0367564
          225     0.0367034
          226     0.0366498
          227     0.0365956
          228     0.0365409
          229     0.0364857
          230       0.03643
          231     0.0363736
          232     0.0363168
          233     0.0362594
          234     0.0362015
          235      0.036143
          236      0.036084
          237     0.0360245
          238     0.0359644
          239     0.0359038
          240     0.0358427
          241      0.035781
          242     0.0357188
          243      0.035656
          244     0.0355928
          245      0.035529
          246     0.0354646
          247     0.0353998
          248     0.0353344
          249     0.0352685
          250     0.0352021
          251     0.0351351
          252     0.0350677
          253     0.0349997
          254     0.0349312
          255     0.0348622
          256     0.0347927
          257     0.0347227
          258     0.0346521
          259     0.0345811
          260     0.0345096
          261     0.0344376
          262      0.034365
          263      0.034292
          264     0.0342186
          265     0.0341446
          266     0.0340701
          267     0.0339952
          268     0.0339198
          269     0.0338439
          270     0.0337676
          271     0.0336907
          272     0.0336135
          273     0.0335358
          274     0.0334576
          275     0.0333789
          276     0.0332999
          277     0.0332204
          278     0.0331404
          279       0.03306
          280     0.0329792
          281      0.032898
          282     0.0328163
          283     0.0327343
          284     0.0326518
          285     0.0325689
          286     0.0324856
          287     0.0324019
          288     0.0323178
          289     0.0322334
          290     0.0321485
          291     0.0320633
          292     0.0319777
          293     0.0318918
          294     0.0318054
          295     0.0317188
          296     0.0316317
          297     0.0315443
          298     0.0314566
          299     0.0313686
          300     0.0312802
          301     0.0311915
          302     0.0311025
          303     0.0310131
          304     0.0309235
          305     0.0308335
          306     0.0307433
          307     0.0306527
          308     0.0305619
          309     0.0304708
          310     0.0303794
          311     0.0302878
          312     0.0301959
          313     0.0301037
          314     0.0300113
          315     0.0299187
          316     0.0298258
          317     0.0297326
          318     0.0296393
          319     0.0295457
          320     0.0294519
          321     0.0293579
          322     0.0292637
          323     0.0291693
          324     0.0290748
          325       0.02898
          326      0.028885
          327     0.0287899
          328     0.0286946
          329     0.0285992
          330     0.0285036
          331     0.0284079
          332      0.028312
          333     0.0282159
          334     0.0281198
          335     0.0280235
          336     0.0279271
          337     0.0278306
          338      0.027734
          339     0.0276373
          340     0.0275405
          341     0.0274436
          342     0.0273466
          343     0.0272496
          344     0.0271525
          345     0.0270553
          346     0.0269581
          347     0.0268608
          348     0.0267635
          349     0.0266661
          350     0.0265687
          351     0.0264712
          352     0.0263738
          353     0.0262763
          354     0.0261788
          355     0.0260813
          356     0.0259838
          357     0.0258863
          358     0.0257888
          359     0.0256914
          360     0.0255939
          361     0.0254965
          362     0.0253991
          363     0.0253018
          364     0.0252045
          365     0.0251072
          366       0.02501
          367     0.0249129
          368     0.0248158
          369     0.0247188
          370     0.0246218
          371      0.024525
          372     0.0244282
          373     0.0243315
          374     0.0242349
          375     0.0241384
          376      0.024042
          377     0.0239457
          378     0.0238495
          379     0.0237534
          380     0.0236575
          381     0.0235617
          382      0.023466
          383     0.0233704
          384      0.023275
          385     0.0231797
          386     0.0230846
          387     0.0229896
          388     0.0228948
          389     0.0228002
          390     0.0227057
          391     0.0226113
          392     0.0225172
          393     0.0224232
          394     0.0223294
          395     0.0222357
          396     0.0221423
          397      0.022049
          398      0.021956
          399     0.0218631
          400     0.0217705
          401      0.021678
          402     0.0215857
          403     0.0214937
          404     0.0214019
          405     0.0213102
          406     0.0212188
          407     0.0211277
          408     0.0210367
          409      0.020946
          410     0.0208555
          411     0.0207652
          412     0.0206752
          413     0.0205854
          414     0.0204959
          415     0.0204066
          416     0.0203175
          417     0.0202287
          418     0.0201402
          419     0.0200519
          420     0.0199638
          421     0.0198761
          422     0.0197885
          423     0.0197013
          424     0.0196143
          425     0.0195276
          426     0.0194411
          427     0.0193549
          428      0.019269
          429     0.0191834
          430      0.019098
          431     0.0190129
          432     0.0189281
          433     0.0188436
          434     0.0187593
          435     0.0186754
          436     0.0185917
          437     0.0185083
          438     0.0184252
          439     0.0183424
          440     0.0182599
          441     0.0181777
          442     0.0180958
          443     0.0180141
          444     0.0179328
          445     0.0178518
          446      0.017771
          447     0.0176906
          448     0.0176105
          449     0.0175306
          450     0.0174511
          451     0.0173719
          452      0.017293
          453     0.0172143
          454      0.017136
          455      0.017058
          456     0.0169803
          457     0.0169029
          458     0.0168258
          459     0.0167491
          460     0.0166726
          461     0.0165964
          462     0.0165206
          463     0.0164451
          464     0.0163698
          465     0.0162949
          466     0.0162203
          467      0.016146
          468      0.016072
          469     0.0159984
          470      0.015925
          471      0.015852
          472     0.0157792
          473     0.0157068
          474     0.0156347
          475     0.0155629
          476     0.0154914
          477     0.0154203
          478     0.0153494
          479     0.0152789
          480     0.0152086
          481     0.0151387
          482     0.0150691
          483     0.0149998
          484     0.0149308
          485     0.0148622
          486     0.0147938
          487     0.0147257
          488      0.014658
          489     0.0145906
          490     0.0145234
          491     0.0144566
          492     0.0143901
          493     0.0143239
          494      0.014258
          495     0.0141924
          496     0.0141272
          497     0.0140622
          498     0.0139975
          499     0.0139332
          500     0.0138691
          501     0.0138053
          502     0.0137419
          503     0.0136787
          504     0.0136159
          505     0.0135534
          506     0.0134911
          507     0.0134292
          508     0.0133675
          509     0.0133062
          510     0.0132451
          511     0.0131844
          512     0.0131239
          513     0.0130638
          514     0.0130039
          515     0.0129443
          516      0.012885
          517      0.012826
          518     0.0127674
          519     0.0127089
          520     0.0126508
          521      0.012593
          522     0.0125355
          523     0.0124782
          524     0.0124212
          525     0.0123646
          526     0.0123082
          527      0.012252
          528     0.0121962
          529     0.0121407
          530     0.0120854
          531     0.0120304
          532     0.0119757
          533     0.0119212
          534     0.0118671
          535     0.0118132
          536     0.0117596
          537     0.0117063
          538     0.0116532
          539     0.0116004
          540     0.0115479
          541     0.0114956
          542     0.0114436
          543     0.0113919
          544     0.0113405
          545     0.0112893
          546     0.0112383
          547     0.0111877
          548     0.0111373
          549     0.0110871
          550     0.0110373
          551     0.0109876
          552     0.0109383
          553     0.0108892
          554     0.0108403
          555     0.0107917
          556     0.0107434
          557     0.0106953
          558     0.0106474
          559     0.0105999
          560     0.0105525
          561     0.0105054
          562     0.0104586
          563      0.010412
          564     0.0103656
          565     0.0103195
          566     0.0102736
          567      0.010228
          568     0.0101826
          569     0.0101374
          570     0.0100925
          571     0.0100478
          572     0.0100034
          573    0.00995917
          574    0.00991519
          575    0.00987144
          576    0.00982793
          577    0.00978464
          578    0.00974158
          579    0.00969875
          580    0.00965615
          581    0.00961377
          582    0.00957162
          583    0.00952969
          584    0.00948798
          585    0.00944649
          586    0.00940522
          587    0.00936417
          588    0.00932334
          589    0.00928272
          590    0.00924232
          591    0.00920214
          592    0.00916217
          593     0.0091224
          594    0.00908286
          595    0.00904352
          596    0.00900439
          597    0.00896546
          598    0.00892675
          599    0.00888824
          600    0.00884993
          601    0.00881183
          602    0.00877393
          603    0.00873623
          604    0.00869873
          605    0.00866143
          606    0.00862433
          607    0.00858743
          608    0.00855072
          609    0.00851421
          610    0.00847789
          611    0.00844177
          612    0.00840583
          613    0.00837009
          614    0.00833454
          615    0.00829917
          616      0.008264
          617    0.00822901
          618     0.0081942
          619    0.00815958
          620    0.00812515
          621     0.0080909
          622    0.00805683
          623    0.00802294
          624    0.00798923
          625     0.0079557
          626    0.00792234
          627    0.00788917
          628    0.00785617
          629    0.00782334
          630    0.00779069
          631    0.00775821
          632     0.0077259
          633    0.00769377
          634     0.0076618
          635       0.00763
          636    0.00759837
          637    0.00756691
          638    0.00753562
          639    0.00750449
          640    0.00747352
          641    0.00744272
          642    0.00741208
          643     0.0073816
          644    0.00735128
          645    0.00732113
          646    0.00729113
          647    0.00726129
          648     0.0072316
          649    0.00720208
          650     0.0071727
          651    0.00714349
          652    0.00711442
          653    0.00708551
          654    0.00705675
          655    0.00702814
          656    0.00699969
          657    0.00697138
          658    0.00694322
          659     0.0069152
          660    0.00688734
          661    0.00685961
          662    0.00683204
          663    0.00680461
          664    0.00677732
          665    0.00675017
          666    0.00672317
          667    0.00669631
          668    0.00666958
          669      0.006643
          670    0.00661655
          671    0.00659024
          672    0.00656407
          673    0.00653804
          674    0.00651214
          675    0.00648637
          676    0.00646074
          677    0.00643524
          678    0.00640988
          679    0.00638464
          680    0.00635954
          681    0.00633456
          682    0.00630972
          683      0.006285
          684    0.00626041
          685    0.00623595
          686    0.00621161
          687     0.0061874
          688    0.00616331
          689    0.00613935
          690    0.00611551
          691    0.00609179
          692     0.0060682
          693    0.00604472
          694    0.00602137
          695    0.00599814
          696    0.00597502
          697    0.00595202
          698    0.00592915
          699    0.00590638
          700    0.00588374
          701    0.00586121
          702    0.00583879
          703    0.00581649
          704     0.0057943
          705    0.00577223
          706    0.00575026
          707    0.00572841
          708    0.00570667
          709    0.00568504
          710    0.00566352
          711    0.00564211
          712    0.00562081
          713    0.00559961
          714    0.00557852
          715    0.00555754
          716    0.00553666
          717    0.00551589
          718    0.00549523
          719    0.00547466
          720    0.00545421
          721    0.00543385
          722     0.0054136
          723    0.00539344
          724    0.00537339
          725    0.00535344
          726    0.00533359
          727    0.00531384
          728    0.00529418
          729    0.00527463
          730    0.00525517
          731    0.00523581
          732    0.00521655
          733    0.00519738
          734     0.0051783
          735    0.00515932
          736    0.00514044
          737    0.00512165
          738    0.00510295
          739    0.00508434
          740    0.00506583
          741    0.00504741
          742    0.00502908
          743    0.00501084
          744    0.00499269
          745    0.00497462
          746    0.00495665
          747    0.00493877
          748    0.00492097
          749    0.00490326
          750    0.00488564
          751     0.0048681
          752    0.00485065
          753    0.00483329
          754    0.00481601
          755    0.00479881
          756     0.0047817
          757    0.00476467
          758    0.00474772
          759    0.00473086
          760    0.00471407
          761    0.00469737
          762    0.00468075
          763    0.00466421
          764    0.00464776
          765    0.00463138
          766    0.00461507
          767    0.00459885
          768    0.00458271
          769    0.00456664
          770    0.00455065
          771    0.00453474
          772    0.00451891
          773    0.00450315
          774    0.00448746
          775    0.00447185
          776    0.00445632
          777    0.00444086
          778    0.00442547
          779    0.00441016
          780    0.00439492
          781    0.00437975
          782    0.00436465
          783    0.00434963
          784    0.00433468
          785     0.0043198
          786    0.00430499
          787    0.00429024
          788    0.00427557
          789    0.00426097
          790    0.00424644
          791    0.00423197
          792    0.00421758
          793    0.00420325
          794    0.00418899
          795    0.00417479
          796    0.00416066
          797     0.0041466
          798    0.00413261
          799    0.00411868
          800    0.00410481
          801    0.00409101
          802    0.00407727
          803     0.0040636
          804    0.00404999
          805    0.00403645
          806    0.00402297
          807    0.00400955
          808    0.00399619
          809    0.00398289
          810    0.00396966
          811    0.00395648
          812    0.00394337
          813    0.00393032
          814    0.00391733
          815     0.0039044
          816    0.00389152
          817    0.00387871
          818    0.00386596
          819    0.00385326
          820    0.00384062
          821    0.00382804
          822    0.00381552
          823    0.00380305
          824    0.00379064
          825    0.00377829
          826      0.003766
          827    0.00375376
          828    0.00374157
          829    0.00372944
          830    0.00371737
          831    0.00370535
          832    0.00369338
          833    0.00368147
          834    0.00366962
          835    0.00365781
          836    0.00364606
          837    0.00363436
          838    0.00362272
          839    0.00361112
          840    0.00359958
          841    0.00358809
          842    0.00357666
          843    0.00356527
          844    0.00355393
          845    0.00354265
          846    0.00353142
          847    0.00352023
          848     0.0035091
          849    0.00349801
          850    0.00348697
          851    0.00347599
          852    0.00346505
          853    0.00345416
          854    0.00344332
          855    0.00343252
          856    0.00342178
          857    0.00341108
          858    0.00340042
          859    0.00338982
          860    0.00337926
          861    0.00336875
          862    0.00335828
          863    0.00334786
          864    0.00333749
          865    0.00332716
          866    0.00331687
          867    0.00330664
          868    0.00329644
          869    0.00328629
          870    0.00327618
          871    0.00326612
          872     0.0032561
          873    0.00324613
          874     0.0032362
          875    0.00322631
          876    0.00321646
          877    0.00320666
          878     0.0031969
          879    0.00318718
          880     0.0031775
          881    0.00316786
          882    0.00315827
          883    0.00314872
          884     0.0031392
          885    0.00312973
          886     0.0031203
          887    0.00311091
          888    0.00310156
          889    0.00309225
          890    0.00308298
          891    0.00307375
          892    0.00306455
          893     0.0030554
          894    0.00304629
          895    0.00303721
          896    0.00302817
          897    0.00301917
          898    0.00301021
          899    0.00300129
          900     0.0029924
          901    0.00298355
          902    0.00297474
          903    0.00296597
          904    0.00295723
          905    0.00294853
          906    0.00293986
          907    0.00293124
          908    0.00292264
          909    0.00291409
          910    0.00290557
          911    0.00289708
          912    0.00288863
          913    0.00288022
          914    0.00287184
          915    0.00286349
          916    0.00285518
          917    0.00284691
          918    0.00283867
          919    0.00283046
          920    0.00282228
          921    0.00281414
          922    0.00280604
          923    0.00279797
          924    0.00278993
          925    0.00278192
          926    0.00277394
          927      0.002766
          928    0.00275809
          929    0.00275022
          930    0.00274237
          931    0.00273456
          932    0.00272678
          933    0.00271903
          934    0.00271131
          935    0.00270363
          936    0.00269597
          937    0.00268835
          938    0.00268076
          939    0.00267319
          940    0.00266566
          941    0.00265816
          942    0.00265069
          943    0.00264325
          944    0.00263584
          945    0.00262846
          946    0.00262111
          947    0.00261378
          948    0.00260649
          949    0.00259923
          950    0.00259199
          951    0.00258479
          952    0.00257761
          953    0.00257046
          954    0.00256334
          955    0.00255625
          956    0.00254919
          957    0.00254215
          958    0.00253515
          959    0.00252817
          960    0.00252122
          961    0.00251429
          962    0.00250739
          963    0.00250052
          964    0.00249368
          965    0.00248687
          966    0.00248008
          967    0.00247332
          968    0.00246658
          969    0.00245987
          970    0.00245319
          971    0.00244653
          972     0.0024399
          973     0.0024333
          974    0.00242672
          975    0.00242016
          976    0.00241363
          977    0.00240713
          978    0.00240065
          979     0.0023942
          980    0.00238778
          981    0.00238137
          982      0.002375
          983    0.00236864
          984    0.00236231
          985    0.00235601
          986    0.00234973
          987    0.00234348
          988    0.00233724
          989    0.00233104
          990    0.00232485
          991    0.00231869
          992    0.00231256
          993    0.00230644
          994    0.00230035
          995    0.00229429
          996    0.00228825
          997    0.00228223
          998    0.00227623
          999    0.00227025
         1000     0.0022643
         1001    0.00225837
         1002    0.00225247
         1003    0.00224658
         1004    0.00224072
         1005    0.00223488
         1006    0.00222906
         1007    0.00222327
         1008    0.00221749
         1009    0.00221174
         1010    0.00220601
         1011     0.0022003
         1012    0.00219461
         1013    0.00218895
         1014     0.0021833
         1015    0.00217768
         1016    0.00217207
         1017    0.00216649
         1018    0.00216093
         1019    0.00215539
         1020    0.00214987
         1021    0.00214437
         1022    0.00213889
         1023    0.00213343
         1024    0.00212799
         1025    0.00212257
         1026    0.00211718
         1027     0.0021118
         1028    0.00210644
         1029     0.0021011
         1030    0.00209578
         1031    0.00209048
         1032     0.0020852
         1033    0.00207994
         1034     0.0020747
         1035    0.00206948
         1036    0.00206427
         1037    0.00205909
         1038    0.00205392
         1039    0.00204878
         1040    0.00204365
         1041    0.00203854
         1042    0.00203345
         1043    0.00202838
         1044    0.00202333
         1045    0.00201829
         1046    0.00201327
         1047    0.00200828
         1048     0.0020033
         1049    0.00199833
         1050    0.00199339
         1051    0.00198846
         1052    0.00198355
         1053    0.00197866
         1054    0.00197379
         1055    0.00196893
         1056    0.00196409
         1057    0.00195927
         1058    0.00195447
         1059    0.00194968
         1060    0.00194491
         1061    0.00194016
         1062    0.00193542
         1063     0.0019307
         1064      0.001926
         1065    0.00192131
         1066    0.00191664
         1067    0.00191199
         1068    0.00190736