# Probe 0 (0.05 0.05 0.005)
#       Probe             0
#        Time
            1   5.74829e+10
            2   5.74829e+10
            3   5.74829e+10
            4   5.74829e+10
            5   5.74829e+10
            6   5.74829e+10
            7   5.74829e+10
            8   5.74829e+10
            9   5.74829e+10
           10   5.74829e+10
           11   5.74829e+10
           12   5.74829e+10
           13   5.74829e+10
           14   5.74829e+10
           15   5.74829e+10
           16   5.74829e+10
           17   5.74829e+10
           18   5.74829e+10
           19   5.74828e+10
           20   5.74828e+10
           21   5.74828e+10
           22   5.74828e+10
           23   5.74828e+10
           24   5.74828e+10
           25   5.74827e+10
           26   5.74827e+10
           27   5.74827e+10
           28   5.74826e+10
           29   5.74826e+10
           30   5.74825e+10
           31   5.74825e+10
           32   5.74824e+10
           33   5.74823e+10
           34   5.74823e+10
           35   5.74822e+10
           36   5.74821e+10
           37    5.7482e+10
           38   5.74819e+10
           39   5.74818e+10
           40   5.74817e+10
           41   5.74816e+10
           42   5.74814e+10
           43   5.74813e+10
           44   5.74811e+10
           45    5.7481e+10
           46   5.74808e+10
           47   5.74806e+10
           48   5.74804e+10
           49   5.74802e+10
           50   5.74799e+10
           51   5.74797e+10
           52   5.74794e+10
           53   5.74791e+10
           54   5.74788e+10
           55   5.74785e+10
           56   5.74782e+10
           57   5.74779e+10
           58   5.74775e+10
           59   5.74771e+10
           60   5.74767e+10
           61   5.74763e+10
           62   5.74758e+10
           63   5.74753e+10
           64   5.74749e+10
           65   5.74743e+10
           66   5.74738e+10
           67   5.74732e+10
           68   5.74726e+10
           69    5.7472e+10
           70   5.74714e+10
           71   5.74707e+10
           72     5.747e+10
           73   5.74692e+10
           74   5.74685e+10
           75   5.74677e+10
           76   5.74668e+10
           77    5.7466e+10
           78   5.74651e+10
           79   5.74641e+10
           80   5.74632e+10
           81   5.74621e+10
           82   5.74611e+10
           83     5.746e+10
           84   5.74589e+10
           85   5.74577e+10
           86   5.74565e+10
           87   5.74553e+10
           88    5.7454e+10
           89   5.74526e+10
           90   5.74512e+10
           91   5.74498e+10
           92   5.74483e+10
           93   5.74468e+10
           94   5.74452e+10
           95   5.74435e+10
           96   5.74419e+10
           97   5.74401e+10
           98   5.74383e+10
           99   5.74365e+10
          100   5.74346e+10
          101   5.74326e+10
          102   5.74306e+10
          103   5.74285e+10
          104   5.74263e+10
          105   5.74241e+10
          106   5.74218e+10
          107   5.74195e+10
          108   5.74171e+10
          109   5.74146e+10
          110   5.74121e+10
          111   5.74095e+10
          112   5.74068e+10
          113    5.7404e+10
          114   5.74012e+10
          115   5.73983e+10
          116   5.73953e+10
          117   5.73923e+10
          118   5.73891e+10
          119   5.73859e+10
          120   5.73826e+10
          121   5.73792e+10
          122   5.73758e+10
          123   5.73722e+10
          124   5.73686e+10
          125   5.73649e+10
          126    5.7361e+10
          127   5.73571e+10
          128   5.73531e+10
          129    5.7349e+10
          130   5.73449e+10
          131   5.73406e+10
          132   5.73362e+10
          133   5.73317e+10
          134   5.73271e+10
          135   5.73225e+10
          136   5.73177e+10
          137   5.73128e+10
          138   5.73078e+10
          139   5.73027e+10
          140   5.72975e+10
          141   5.72921e+10
          142   5.72867e+10
          143   5.72812e+10
          144   5.72755e+10
          145   5.72697e+10
          146   5.72638e+10
          147   5.72578e+10
          148   5.72517e+10
          149   5.72454e+10
          150    5.7239e+10
          151   5.72325e+10
          152   5.72259e+10
          153   5.72191e+10
          154   5.72122e+10
          155   5.72052e+10
          156    5.7198e+10
          157   5.71907e+10
          158   5.71833e+10
          159   5.71757e+10
          160    5.7168e+10
          161   5.71602e+10
          162   5.71522e+10
          163    5.7144e+10
          164   5.71358e+10
          165   5.71273e+10
          166   5.71188e+10
          167   5.71101e+10
          168   5.71012e+10
          169   5.70922e+10
          170    5.7083e+10
          171   5.70736e+10
          172   5.70641e+10
          173   5.70545e+10
          174   5.70447e+10
          175   5.70347e+10
          176   5.70246e+10
          177   5.70143e+10
          178   5.70038e+10
          179   5.69932e+10
          180   5.69824e+10
          181   5.69714e+10
          182   5.69602e+10
          183   5.69489e+10
          184   5.69374e+10
          185   5.69258e+10
          186   5.69139e+10
          187   5.69019e+10
          188   5.68897e+10
          189   5.68773e+10
          190   5.68647e+10
          191   5.68519e+10
          192    5.6839e+10
          193   5.68258e+10
          194   5.68125e+10
          195    5.6799e+10
          196   5.67853e+10
          197   5.67714e+10
          198   5.67573e+10
          199    5.6743e+10
          200   5.67285e+10
          201   5.67138e+10
          202   5.66989e+10
          203   5.66838e+10
          204   5.66685e+10
          205    5.6653e+10
          206   5.66373e+10
          207   5.66214e+10
          208   5.66053e+10
          209    5.6589e+10
          210   5.65724e+10
          211   5.65557e+10
          212   5.65387e+10
          213   5.65215e+10
          214   5.65041e+10
          215   5.64865e+10
          216   5.64687e+10
          217   5.64507e+10
          218   5.64324e+10
          219   5.64139e+10
          220   5.63952e+10
          221   5.63763e+10
          222   5.63571e+10
          223   5.63377e+10
          224   5.63181e+10
          225   5.62983e+10
          226   5.62782e+10
          227   5.62579e+10
          228   5.62374e+10
          229   5.62166e+10
          230   5.61956e+10
          231   5.61744e+10
          232    5.6153e+10
          233   5.61313e+10
          234   5.61094e+10
          235   5.60872e+10
          236   5.60648e+10
          237   5.60422e+10
          238   5.60193e+10
          239   5.59962e+10
          240   5.59728e+10
          241   5.59492e+10
          242   5.59254e+10
          243   5.59013e+10
          244    5.5877e+10
          245   5.58524e+10
          246   5.58276e+10
          247   5.58026e+10
          248   5.57773e+10
          249   5.57517e+10
          250   5.57259e+10
          251   5.56999e+10
          252   5.56736e+10
          253   5.56471e+10
          254   5.56203e+10
          255   5.55933e+10
          256    5.5566e+10
          257   5.55385e+10
          258   5.55107e+10
          259   5.54827e+10
          260   5.54544e+10
          261   5.54259e+10
          262   5.53971e+10
          263   5.53681e+10
          264   5.53389e+10
          265   5.53093e+10
          266   5.52796e+10
          267   5.52495e+10
          268   5.52193e+10
          269   5.51887e+10
          270    5.5158e+10
          271   5.51269e+10
          272   5.50957e+10
          273   5.50641e+10
          274   5.50324e+10
          275   5.50003e+10
          276   5.49681e+10
          277   5.49355e+10
          278   5.49028e+10
          279   5.48697e+10
          280   5.48365e+10
          281   5.48029e+10
          282   5.47692e+10
          283   5.47351e+10
          284   5.47009e+10
          285   5.46664e+10
          286   5.46316e+10
          287   5.45966e+10
          288   5.45613e+10
          289   5.45258e+10
          290   5.44901e+10
          291   5.44541e+10
          292   5.44178e+10
          293   5.43814e+10
          294   5.43446e+10
          295   5.43077e+10
          296   5.42705e+10
          297    5.4233e+10
          298   5.41953e+10
          299   5.41574e+10
          300   5.41192e+10
          301   5.40808e+10
          302   5.40422e+10
          303   5.40033e+10
          304   5.39642e+10
          305   5.39248e+10
          306   5.38852e+10
          307   5.38454e+10
          308   5.38054e+10
          309   5.37651e+10
          310   5.37246e+10
          311   5.36838e+10
          312   5.36429e+10
          313   5.36017e+10
          314   5.35602e+10
          315   5.35186e+10
          316   5.34767e+10
          317   5.34346e+10
          318   5.33923e+10
          319   5.33498e+10
          320    5.3307e+10
          321    5.3264e+10
          322   5.32208e+10
          323   5.31774e+10
          324   5.31338e+10
          325     5.309e+10
          326   5.30459e+10
          327   5.30017e+10
          328   5.29572e+10
          329   5.29125e+10
          330   5.28676e+10
          331   5.28226e+10
          332   5.27773e+10
          333   5.27318e+10
          334   5.26861e+10
          335   5.26402e+10
          336   5.25941e+10
          337   5.25478e+10
          338   5.25013e+10
          339   5.24546e+10
          340   5.24077e+10
          341   5.23607e+10
          342   5.23134e+10
          343    5.2266e+10
          344   5.22184e+10
          345   5.21706e+10
          346   5.21226e+10
          347   5.20744e+10
          348    5.2026e+10
          349   5.19775e+10
          350   5.19288e+10
          351   5.18799e+10
          352   5.18308e+10
          353   5.17816e+10
          354   5.17322e+10
          355   5.16826e+10
          356   5.16329e+10
          357    5.1583e+10
          358   5.15329e+10
          359   5.14827e+10
          360   5.14323e+10
          361   5.13817e+10
          362    5.1331e+10
          363   5.12802e+10
          364   5.12292e+10
          365    5.1178e+10
          366   5.11267e+10
          367   5.10752e+10
          368   5.10236e+10
          369   5.09718e+10
          370   5.09199e+10
          371   5.08679e+10
          372   5.08157e+10
          373   5.07634e+10
          374   5.07109e+10
          375   5.06583e+10
          376   5.06056e+10
          377   5.05528e+10
          378   5.04998e+10
          379   5.04467e+10
          380   5.03934e+10
          381   5.03401e+10
          382   5.02866e+10
          383    5.0233e+10
          384   5.01793e+10
          385   5.01254e+10
          386   5.00715e+10
          387   5.00174e+10
          388   4.99632e+10
          389   4.99089e+10
          390   4.98545e+10
          391      4.98e+10
          392   4.97454e+10
          393   4.96907e+10
          394   4.96359e+10
          395    4.9581e+10
          396    4.9526e+10
          397   4.94709e+10
          398   4.94157e+10
          399   4.93604e+10
          400    4.9305e+10
          401   4.92495e+10
          402    4.9194e+10
          403   4.91383e+10
          404   4.90826e+10
          405   4.90268e+10
          406   4.89709e+10
          407   4.89149e+10
          408   4.88588e+10
          409   4.88027e+10
          410   4.87465e+10
          411   4.86902e+10
          412   4.86339e+10
          413   4.85775e+10
          414    4.8521e+10
          415   4.84644e+10
          416   4.84078e+10
          417   4.83512e+10
          418   4.82944e+10
          419   4.82376e+10
          420   4.81808e+10
          421   4.81239e+10
          422   4.80669e+10
          423   4.80099e+10
          424   4.79528e+10
          425   4.78957e+10
          426   4.78385e+10
          427   4.77813e+10
          428    4.7724e+10
          429   4.76667e+10
          430   4.76094e+10
          431    4.7552e+10
          432   4.74946e+10
          433   4.74371e+10
          434   4.73796e+10
          435   4.73221e+10
          436   4.72645e+10
          437   4.72069e+10
          438   4.71493e+10
          439   4.70916e+10
          440   4.70339e+10
          441   4.69762e+10
          442   4.69184e+10
          443   4.68607e+10
          444   4.68029e+10
          445   4.67451e+10
          446   4.66872e+10
          447   4.66294e+10
          448   4.65715e+10
          449   4.65136e+10
          450   4.64557e+10
          451   4.63978e+10
          452   4.63399e+10
          453    4.6282e+10
          454    4.6224e+10
          455   4.61661e+10
          456   4.61081e+10
          457   4.60502e+10
          458   4.59922e+10
          459   4.59342e+10
          460   4.58762e+10
          461   4.58183e+10
          462   4.57603e+10
          463   4.57023e+10
          464   4.56444e+10
          465   4.55864e+10
          466   4.55284e+10
          467   4.54705e+10
          468   4.54125e+10
          469   4.53546e+10
          470   4.52967e+10
          471   4.52388e+10
          472   4.51808e+10
          473    4.5123e+10
          474   4.50651e+10
          475   4.50072e+10
          476   4.49494e+10
          477   4.48915e+10
          478   4.48337e+10
          479   4.47759e+10
          480   4.47182e+10
          481   4.46604e+10
          482   4.46027e+10
          483    4.4545e+10
          484   4.44873e+10
          485   4.44296e+10
          486    4.4372e+10
          487   4.43144e+10
          488   4.42568e+10
          489   4.41992e+10
          490   4.41417e+10
          491   4.40842e+10
          492   4.40268e+10
          493   4.39693e+10
          494   4.39119e+10
          495   4.38546e+10
          496   4.37973e+10
          497     4.374e+10
          498   4.36827e+10
          499   4.36255e+10
          500   4.35683e+10
          501   4.35112e+10
          502   4.34541e+10
          503    4.3397e+10
          504     4.334e+10
          505    4.3283e+10
          506   4.32261e+10
          507   4.31692e+10
          508   4.31123e+10
          509   4.30555e+10
          510   4.29987e+10
          511    4.2942e+10
          512   4.28854e+10
          513   4.28287e+10
          514   4.27722e+10
          515   4.27156e+10
          516   4.26592e+10
          517   4.26027e+10
          518   4.25463e+10
          519     4.249e+10
          520   4.24337e+10
          521   4.23775e+10
          522   4.23214e+10
          523   4.22652e+10
          524   4.22092e+10
          525   4.21532e+10
          526   4.20972e+10
          527   4.20413e+10
          528   4.19855e+10
          529   4.19297e+10
          530    4.1874e+10
          531   4.18183e+10
          532   4.17627e+10
          533   4.17072e+10
          534   4.16517e+10
          535   4.15962e+10
          536   4.15409e+10
          537   4.14856e+10
          538   4.14303e+10
          539   4.13751e+10
          540     4.132e+10
          541    4.1265e+10
          542     4.121e+10
          543    4.1155e+10
          544   4.11002e+10
          545   4.10454e+10
          546   4.09906e+10
          547   4.09359e+10
          548   4.08813e+10
          549   4.08268e+10
          550   4.07723e+10
          551   4.07179e+10
          552   4.06636e+10
          553   4.06093e+10
          554   4.05551e+10
          555   4.05009e+10
          556   4.04469e+10
          557   4.03929e+10
          558   4.03389e+10
          559   4.02851e+10
          560   4.02313e+10
          561   4.01776e+10
          562   4.01239e+10
          563   4.00703e+10
          564   4.00168e+10
          565   3.99634e+10
          566     3.991e+10
          567   3.98567e+10
          568   3.98035e+10
          569   3.97504e+10
          570   3.96973e+10
          571   3.96443e+10
          572   3.95913e+10
          573   3.95385e+10
          574   3.94857e+10
          575    3.9433e+10
          576   3.93804e+10
          577   3.93278e+10
          578   3.92753e+10
          579   3.92229e+10
          580   3.91706e+10
          581   3.91183e+10
          582   3.90661e+10
          583    3.9014e+10
          584    3.8962e+10
          585     3.891e+10
          586   3.88582e+10
          587   3.88064e+10
          588   3.87546e+10
          589    3.8703e+10
          590   3.86514e+10
          591   3.85999e+10
          592   3.85485e+10
          593   3.84972e+10
          594   3.84459e+10
          595   3.83947e+10
          596   3.83436e+10
          597   3.82926e+10
          598   3.82416e+10
          599   3.81908e+10
          600     3.814e+10
          601   3.80893e+10
          602   3.80386e+10
          603   3.79881e+10
          604   3.79376e+10
          605   3.78872e+10
          606   3.78369e+10
          607   3.77866e+10
          608   3.77365e+10
          609   3.76864e+10
          610   3.76364e+10
          611   3.75865e+10
          612   3.75366e+10
          613   3.74868e+10
          614   3.74372e+10
          615   3.73876e+10
          616    3.7338e+10
          617   3.72886e+10
          618   3.72392e+10
          619   3.71899e+10
          620   3.71407e+10
          621   3.70916e+10
          622   3.70426e+10
          623   3.69936e+10
          624   3.69447e+10
          625   3.68959e+10
          626   3.68472e+10
          627   3.67985e+10
          628     3.675e+10
          629   3.67015e+10
          630   3.66531e+10
          631   3.66048e+10
          632   3.65565e+10
          633   3.65084e+10
          634   3.64603e+10
          635   3.64123e+10
          636   3.63644e+10
          637   3.63165e+10
          638   3.62688e+10
          639   3.62211e+10
          640   3.61735e+10
          641    3.6126e+10
          642   3.60785e+10
          643   3.60312e+10
          644   3.59839e+10
          645   3.59367e+10
          646   3.58896e+10
          647   3.58426e+10
          648   3.57956e+10
          649   3.57487e+10
          650   3.57019e+10
          651   3.56552e+10
          652   3.56086e+10
          653    3.5562e+10
          654   3.55156e+10
          655   3.54692e+10
          656   3.54229e+10
          657   3.53766e+10
          658   3.53305e+10
          659   3.52844e+10
          660   3.52384e+10
          661   3.51925e+10
          662   3.51467e+10
          663   3.51009e+10
          664   3.50552e+10
          665   3.50097e+10
          666   3.49641e+10
          667   3.49187e+10
          668   3.48733e+10
          669   3.48281e+10
          670   3.47829e+10
          671   3.47378e+10
          672   3.46927e+10
          673   3.46478e+10
          674   3.46029e+10
          675   3.45581e+10
          676   3.45134e+10
          677   3.44687e+10
          678   3.44242e+10
          679   3.43797e+10
          680   3.43353e+10
          681   3.42909e+10
          682   3.42467e+10
          683   3.42025e+10
          684   3.41584e+10
          685   3.41144e+10
          686   3.40705e+10
          687   3.40266e+10
          688   3.39829e+10
          689   3.39392e+10
          690   3.38955e+10
          691    3.3852e+10
          692   3.38085e+10
          693   3.37651e+10
          694   3.37218e+10
          695   3.36786e+10
          696   3.36354e+10
          697   3.35923e+10
          698   3.35493e+10
          699   3.35064e+10
          700   3.34636e+10
          701   3.34208e+10
          702   3.33781e+10
          703   3.33355e+10
          704   3.32929e+10
          705   3.32505e+10
          706   3.32081e+10
          707   3.31658e+10
          708   3.31235e+10
          709   3.30813e+10
          710   3.30393e+10
          711   3.29973e+10
          712   3.29553e+10
          713   3.29135e+10
          714   3.28717e+10
          715     3.283e+10
          716   3.27883e+10
          717   3.27468e+10
          718   3.27053e+10
          719   3.26639e+10
          720   3.26225e+10
          721   3.25813e+10
          722   3.25401e+10
          723    3.2499e+10
          724   3.24579e+10
          725    3.2417e+10
          726   3.23761e+10
          727   3.23353e+10
          728   3.22945e+10
          729   3.22539e+10
          730   3.22133e+10
          731   3.21728e+10
          732   3.21323e+10
          733   3.20919e+10
          734   3.20516e+10
          735   3.20114e+10
          736   3.19713e+10
          737   3.19312e+10
          738   3.18912e+10
          739   3.18512e+10
          740   3.18114e+10
          741   3.17716e+10
          742   3.17318e+10
          743   3.16922e+10
          744   3.16526e+10
          745   3.16131e+10
          746   3.15737e+10
          747   3.15343e+10
          748    3.1495e+10
          749   3.14558e+10
          750   3.14167e+10
          751   3.13776e+10
          752   3.13386e+10
          753   3.12996e+10
          754   3.12608e+10
          755    3.1222e+10
          756   3.11833e+10
          757   3.11446e+10
          758    3.1106e+10
          759   3.10675e+10
          760    3.1029e+10
          761   3.09907e+10
          762   3.09524e+10
          763   3.09141e+10
          764    3.0876e+10
          765   3.08379e+10
          766   3.07998e+10
          767   3.07619e+10
          768    3.0724e+10
          769   3.06862e+10
          770   3.06484e+10
          771   3.06107e+10
          772   3.05731e+10
          773   3.05355e+10
          774   3.04981e+10
          775   3.04606e+10
          776   3.04233e+10
          777    3.0386e+10
          778   3.03488e+10
          779   3.03117e+10
          780   3.02746e+10
          781   3.02376e+10
          782   3.02006e+10
          783   3.01637e+10
          784   3.01269e+10
          785   3.00902e+10
          786   3.00535e+10
          787   3.00169e+10
          788   2.99803e+10
          789   2.99439e+10
          790   2.99074e+10
          791   2.98711e+10
          792   2.98348e+10
          793   2.97986e+10
          794   2.97624e+10
          795   2.97263e+10
          796   2.96903e+10
          797   2.96544e+10
          798   2.96185e+10
          799   2.95826e+10
          800   2.95469e+10
          801   2.95112e+10
          802   2.94755e+10
          803     2.944e+10
          804   2.94045e+10
          805    2.9369e+10
          806   2.93336e+10
          807   2.92983e+10
          808   2.92631e+10
          809   2.92279e+10
          810   2.91927e+10
          811   2.91577e+10
          812   2.91227e+10
          813   2.90877e+10
          814   2.90528e+10
          815    2.9018e+10
          816   2.89833e+10
          817   2.89486e+10
          818    2.8914e+10
          819   2.88794e+10
          820   2.88449e+10
          821   2.88104e+10
          822    2.8776e+10
          823   2.87417e+10
          824   2.87075e+10
          825   2.86733e+10
          826   2.86391e+10
          827    2.8605e+10
          828    2.8571e+10
          829   2.85371e+10
          830   2.85032e+10
          831   2.84693e+10
          832   2.84356e+10
          833   2.84018e+10
          834   2.83682e+10
          835   2.83346e+10
          836   2.83011e+10
          837   2.82676e+10
          838   2.82342e+10
          839   2.82008e+10
          840   2.81675e+10
          841   2.81343e+10
          842   2.81011e+10
          843    2.8068e+10
          844   2.80349e+10
          845   2.80019e+10
          846   2.79689e+10
          847    2.7936e+10
          848   2.79032e+10
          849   2.78704e+10
          850   2.78377e+10
          851   2.78051e+10
          852   2.77725e+10
          853   2.77399e+10
          854   2.77074e+10
          855    2.7675e+10
          856   2.76426e+10
          857   2.76103e+10
          858   2.75781e+10
          859   2.75459e+10
          860   2.75137e+10
          861   2.74816e+10
          862   2.74496e+10
          863   2.74176e+10
          864   2.73857e+10
          865   2.73538e+10
          866    2.7322e+10
          867   2.72903e+10
          868   2.72586e+10
          869   2.72269e+10
          870   2.71953e+10
          871   2.71638e+10
          872   2.71323e+10
          873   2.71009e+10
          874   2.70695e+10
          875   2.70382e+10
          876    2.7007e+10
          877   2.69757e+10
          878   2.69446e+10
          879   2.69135e+10
          880   2.68825e+10
          881   2.68515e+10
          882   2.68205e+10
          883   2.67897e+10
          884   2.67588e+10
          885   2.67281e+10
          886   2.66973e+10
          887   2.66667e+10
          888    2.6636e+10
          889   2.66055e+10
          890    2.6575e+10
          891   2.65445e+10
          892   2.65141e+10
          893   2.64838e+10
          894   2.64535e+10
          895   2.64232e+10
          896    2.6393e+10
          897   2.63629e+10
          898   2.63328e+10
          899   2.63028e+10
          900   2.62728e+10
          901   2.62428e+10
          902   2.62129e+10
          903   2.61831e+10
          904   2.61533e+10
          905   2.61236e+10
          906   2.60939e+10
          907   2.60643e+10
          908   2.60347e+10
          909   2.60052e+10
          910   2.59757e+10
          911   2.59463e+10
          912   2.59169e+10
          913   2.58876e+10
          914   2.58583e+10
          915   2.58291e+10
          916   2.57999e+10
          917   2.57707e+10
          918   2.57417e+10
          919   2.57126e+10
          920   2.56837e+10
          921   2.56547e+10
          922   2.56258e+10
          923    2.5597e+10
          924   2.55682e+10
          925   2.55395e+10
          926   2.55108e+10
          927   2.54822e+10
          928   2.54536e+10
          929    2.5425e+10
          930   2.53965e+10
          931   2.53681e+10
          932   2.53397e+10
          933   2.53113e+10
          934    2.5283e+10
          935   2.52548e+10
          936   2.52266e+10
          937   2.51984e+10
          938   2.51703e+10
          939   2.51422e+10
          940   2.51142e+10
          941   2.50862e+10
          942   2.50583e+10
          943   2.50304e+10
          944   2.50026e+10
          945   2.49748e+10
          946   2.49471e+10
          947   2.49194e+10
          948   2.48918e+10
          949   2.48642e+10
          950   2.48366e+10
          951   2.48091e+10
          952   2.47816e+10
          953   2.47542e+10
          954   2.47268e+10
          955   2.46995e+10
          956   2.46722e+10
          957    2.4645e+10
          958   2.46178e+10
          959   2.45907e+10
          960   2.45636e+10
          961   2.45365e+10
          962   2.45095e+10
          963   2.44825e+10
          964   2.44556e+10
          965   2.44287e+10
          966   2.44019e+10
          967   2.43751e+10
          968   2.43484e+10
          969   2.43217e+10
          970    2.4295e+10
          971   2.42684e+10
          972   2.42418e+10
          973   2.42153e+10
          974   2.41888e+10
          975   2.41624e+10
          976    2.4136e+10
          977   2.41097e+10
          978   2.40834e+10
          979   2.40571e+10
          980   2.40309e+10
          981   2.40047e+10
          982   2.39786e+10
          983   2.39525e+10
          984   2.39264e+10
          985   2.39004e+10
          986   2.38744e+10
          987   2.38485e+10
          988   2.38226e+10
          989   2.37968e+10
          990    2.3771e+10
          991   2.37452e+10
          992   2.37195e+10
          993   2.36939e+10
          994   2.36682e+10
          995   2.36426e+10
          996   2.36171e+10
          997   2.35916e+10
          998   2.35661e+10
          999   2.35407e+10
         1000   2.35153e+10
         1001     2.349e+10
         1002   2.34647e+10
         1003   2.34394e+10
         1004   2.34142e+10
         1005    2.3389e+10
         1006   2.33639e+10
         1007   2.33388e+10
         1008   2.33137e+10
         1009   2.32887e+10
         1010   2.32637e+10
         1011   2.32388e+10
         1012   2.32139e+10
         1013    2.3189e+10
         1014   2.31642e+10
         1015   2.31394e+10
         1016   2.31147e+10
         1017     2.309e+10
         1018   2.30653e+10
         1019   2.30407e+10
         1020   2.30161e+10
         1021   2.29916e+10
         1022   2.29671e+10
         1023   2.29426e+10
         1024   2.29182e+10
         1025   2.28938e+10
         1026   2.28695e+10
         1027   2.28451e+10
         1028   2.28209e+10
         1029   2.27966e+10
         1030   2.27725e+10
         1031   2.27483e+10
         1032   2.27242e+10
         1033   2.27001e+10
         1034   2.26761e+10
         1035   2.26521e+10
         1036   2.26281e+10
         1037   2.26042e+10
         1038   2.25803e+10
         1039   2.25564e+10
         1040   2.25326e+10
         1041   2.25088e+10
         1042   2.24851e+10
         1043   2.24614e+10
         1044   2.24377e+10
         1045   2.24141e+10
         1046   2.23905e+10
         1047   2.23669e+10
         1048   2.23434e+10
         1049   2.23199e+10
         1050   2.22965e+10
         1051   2.22731e+10
         1052   2.22497e+10
         1053   2.22264e+10
         1054   2.22031e+10
         1055   2.21798e+10
         1056   2.21566e+10
         1057   2.21334e+10
         1058   2.21102e+10
         1059   2.20871e+10
         1060    2.2064e+10
         1061    2.2041e+10
         1062    2.2018e+10
         1063    2.1995e+10
         1064   2.19721e+10
         1065   2.19492e+10
         1066   2.19263e+10
         1067   2.19035e+10
         1068   2.18807e+10