# Probe 0 (0.05 0.05 0.005)
#       Probe             0
#        Time
            1       1051.13
            2       1051.13
            3       1051.13
            4       1051.13
            5       1051.13
            6       1051.13
            7       1051.13
            8       1051.13
            9       1051.13
           10       1051.13
           11       1051.13
           12       1051.13
           13       1051.13
           14       1051.13
           15       1051.13
           16       1051.13
           17       1051.13
           18       1051.13
           19       1051.13
           20       1051.13
           21       1051.13
           22       1051.12
           23       1051.12
           24       1051.12
           25       1051.12
           26       1051.12
           27       1051.11
           28       1051.11
           29       1051.11
           30        1051.1
           31        1051.1
           32        1051.1
           33       1051.09
           34       1051.09
           35       1051.08
           36       1051.07
           37       1051.07
           38       1051.06
           39       1051.05
           40       1051.04
           41       1051.03
           42       1051.02
           43       1051.01
           44          1051
           45       1050.99
           46       1050.97
           47       1050.96
           48       1050.94
           49       1050.92
           50       1050.91
           51       1050.89
           52       1050.87
           53       1050.85
           54       1050.83
           55        1050.8
           56       1050.78
           57       1050.75
           58       1050.72
           59       1050.69
           60       1050.66
           61       1050.63
           62        1050.6
           63       1050.56
           64       1050.52
           65       1050.48
           66       1050.44
           67        1050.4
           68       1050.35
           69       1050.31
           70       1050.26
           71       1050.21
           72       1050.15
           73        1050.1
           74       1050.04
           75       1049.98
           76       1049.92
           77       1049.85
           78       1049.78
           79       1049.71
           80       1049.64
           81       1049.56
           82       1049.48
           83        1049.4
           84       1049.31
           85       1049.22
           86       1049.13
           87       1049.04
           88       1048.94
           89       1048.84
           90       1048.73
           91       1048.62
           92       1048.51
           93        1048.4
           94       1048.28
           95       1048.15
           96       1048.03
           97       1047.89
           98       1047.76
           99       1047.62
          100       1047.47
          101       1047.32
          102       1047.17
          103       1047.01
          104       1046.85
          105       1046.68
          106       1046.51
          107       1046.34
          108       1046.15
          109       1045.97
          110       1045.78
          111       1045.58
          112       1045.38
          113       1045.17
          114       1044.96
          115       1044.74
          116       1044.51
          117       1044.28
          118       1044.05
          119        1043.8
          120       1043.55
          121        1043.3
          122       1043.04
          123       1042.77
          124        1042.5
          125       1042.22
          126       1041.93
          127       1041.64
          128       1041.34
          129       1041.03
          130       1040.71
          131       1040.39
          132       1040.06
          133       1039.73
          134       1039.38
          135       1039.03
          136       1038.67
          137       1038.31
          138       1037.93
          139       1037.55
          140       1037.16
          141       1036.76
          142       1036.35
          143       1035.94
          144       1035.51
          145       1035.08
          146       1034.64
          147       1034.19
          148       1033.73
          149       1033.27
          150       1032.79
          151        1032.3
          152       1031.81
          153        1031.3
          154       1030.79
          155       1030.27
          156       1029.73
          157       1029.19
          158       1028.64
          159       1028.08
          160        1027.5
          161       1026.92
          162       1026.33
          163       1025.72
          164       1025.11
          165       1024.49
          166       1023.85
          167       1023.21
          168       1022.55
          169       1021.88
          170        1021.2
          171       1020.51
          172       1019.81
          173        1019.1
          174       1018.38
          175       1017.64
          176        1016.9
          177       1016.14
          178       1015.37
          179       1014.59
          180        1013.8
          181       1012.99
          182       1012.17
          183       1011.35
          184        1010.5
          185       1009.65
          186       1008.78
          187       1007.91
          188       1007.01
          189       1006.11
          190        1005.2
          191       1004.27
          192       1003.32
          193       1002.37
          194        1001.4
          195       1000.42
          196       999.428
          197       998.422
          198       997.402
          199       996.369
          200       995.322
          201       994.262
          202       993.189
          203       992.102
          204       991.002
          205       989.888
          206       988.761
          207        987.62
          208       986.465
          209       985.297
          210       984.114
          211       982.918
          212       981.708
          213       980.484
          214       979.246
          215       977.995
          216       976.729
          217       975.449
          218       974.155
          219       972.847
          220       971.525
          221       970.188
          222       968.838
          223       967.473
          224       966.095
          225       964.702
          226       963.295
          227       961.873
          228       960.438
          229       958.988
          230       957.524
          231       956.046
          232       954.554
          233       953.047
          234       951.527
          235       949.992
          236       948.443
          237        946.88
          238       945.302
          239       943.711
          240       942.105
          241       940.486
          242       938.852
          243       937.205
          244       935.543
          245       933.868
          246       932.179
          247       930.475
          248       928.758
          249       927.028
          250       925.283
          251       923.525
          252       921.753
          253       919.968
          254       918.169
          255       916.356
          256       914.531
          257       912.692
          258       910.839
          259       908.974
          260       907.095
          261       905.203
          262       903.299
          263       901.381
          264        899.45
          265       897.507
          266       895.551
          267       893.583
          268       891.602
          269       889.609
          270       887.603
          271       885.585
          272       883.555
          273       881.513
          274       879.459
          275       877.393
          276       875.315
          277       873.226
          278       871.126
          279       869.014
          280        866.89
          281       864.756
          282        862.61
          283       860.453
          284       858.286
          285       856.108
          286       853.919
          287        851.72
          288       849.511
          289       847.291
          290       845.062
          291       842.822
          292       840.572
          293       838.313
          294       836.045
          295       833.767
          296       831.479
          297       829.183
          298       826.877
          299       824.563
          300        822.24
          301       819.908
          302       817.568
          303        815.22
          304       812.863
          305       810.499
          306       808.127
          307       805.747
          308       803.359
          309       800.965
          310       798.563
          311       796.153
          312       793.737
          313       791.315
          314       788.885
          315       786.449
          316       784.007
          317       781.559
          318       779.104
          319       776.644
          320       774.178
          321       771.707
          322       769.231
          323       766.749
          324       764.262
          325        761.77
          326       759.274
          327       756.773
          328       754.267
          329       751.757
          330       749.244
          331       746.726
          332       744.205
          333        741.68
          334       739.151
          335        736.62
          336       734.085
          337       731.547
          338       729.006
          339       726.463
          340       723.917
          341       721.369
          342       718.819
          343       716.267
          344       713.713
          345       711.157
          346         708.6
          347       706.041
          348       703.481
          349        700.92
          350       698.358
          351       695.795
          352       693.232
          353       690.668
          354       688.103
          355       685.539
          356       682.974
          357        680.41
          358       677.846
          359       675.282
          360       672.719
          361       670.156
          362       667.595
          363       665.034
          364       662.474
          365       659.916
          366       657.358
          367       654.803
          368       652.249
          369       649.697
          370       647.146
          371       644.598
          372       642.052
          373       639.508
          374       636.967
          375       634.428
          376       631.892
          377       629.358
          378       626.828
          379       624.301
          380       621.776
          381       619.255
          382       616.738
          383       614.223
          384       611.713
          385       609.206
          386       606.703
          387       604.204
          388       601.709
          389       599.218
          390       596.732
          391        594.25
          392       591.772
          393       589.299
          394        586.83
          395       584.367
          396       581.908
          397       579.454
          398       577.005
          399       574.562
          400       572.123
          401        569.69
          402       567.262
          403        564.84
          404       562.423
          405       560.012
          406       557.607
          407       555.208
          408       552.814
          409       550.427
          410       548.045
          411        545.67
          412       543.301
          413       540.938
          414       538.581
          415       536.231
          416       533.887
          417        531.55
          418        529.22
          419       526.896
          420       524.579
          421       522.268
          422       519.965
          423       517.668
          424       515.379
          425       513.096
          426        510.82
          427       508.552
          428       506.291
          429       504.036
          430        501.79
          431        499.55
          432       497.318
          433       495.093
          434       492.876
          435       490.666
          436       488.464
          437       486.269
          438       484.082
          439       481.902
          440        479.73
          441       477.566
          442        475.41
          443       473.261
          444        471.12
          445       468.987
          446       466.862
          447       464.745
          448       462.635
          449       460.534
          450        458.44
          451       456.355
          452       454.277
          453       452.208
          454       450.146
          455       448.093
          456       446.047
          457        444.01
          458       441.981
          459        439.96
          460       437.947
          461       435.942
          462       433.945
          463       431.957
          464       429.977
          465       428.004
          466        426.04
          467       424.085
          468       422.137
          469       420.198
          470       418.267
          471       416.344
          472       414.429
          473       412.522
          474       410.624
          475       408.734
          476       406.852
          477       404.979
          478       403.113
          479       401.256
          480       399.407
          481       397.566
          482       395.734
          483       393.909
          484       392.093
          485       390.285
          486       388.485
          487       386.693
          488        384.91
          489       383.134
          490       381.367
          491       379.608
          492       377.857
          493       376.114
          494       374.379
          495       372.653
          496       370.934
          497       369.223
          498       367.521
          499       365.826
          500        364.14
          501       362.461
          502       360.791
          503       359.128
          504       357.474
          505       355.827
          506       354.188
          507       352.557
          508       350.934
          509       349.319
          510       347.712
          511       346.112
          512        344.52
          513       342.936
          514        341.36
          515       339.791
          516       338.231
          517       336.678
          518       335.132
          519       333.594
          520       332.064
          521       330.542
          522       329.027
          523       327.519
          524       326.019
          525       324.527
          526       323.042
          527       321.564
          528       320.094
          529       318.632
          530       317.176
          531       315.728
          532       314.288
          533       312.854
          534       311.428
          535        310.01
          536       308.598
          537       307.194
          538       305.796
          539       304.406
          540       303.023
          541       301.647
          542       300.279
          543       298.917
          544       297.562
          545       296.214
          546       294.873
          547       293.539
          548       292.212
          549       290.892
          550       289.579
          551       288.272
          552       286.972
          553       285.679
          554       284.393
          555       283.113
          556        281.84
          557       280.574
          558       279.314
          559       278.061
          560       276.815
          561       275.575
          562       274.341
          563       273.114
          564       271.893
          565       270.679
          566       269.471
          567       268.269
          568       267.074
          569       265.885
          570       264.702
          571       263.526
          572       262.355
          573       261.191
          574       260.033
          575       258.881
          576       257.736
          577       256.596
          578       255.462
          579       254.334
          580       253.212
          581       252.097
          582       250.987
          583       249.883
          584       248.784
          585       247.692
          586       246.605
          587       245.524
          588       244.449
          589        243.38
          590       242.316
          591       241.258
          592       240.205
          593       239.158
          594       238.117
          595       237.081
          596       236.051
          597       235.026
          598       234.006
          599       232.992
          600       231.984
          601        230.98
          602       229.982
          603        228.99
          604       228.002
          605        227.02
          606       226.043
          607       225.072
          608       224.105
          609       223.144
          610       222.187
          611       221.236
          612        220.29
          613       219.349
          614       218.413
          615       217.481
          616       216.555
          617       215.634
          618       214.717
          619       213.806
          620       212.899
          621       211.997
          622         211.1
          623       210.208
          624        209.32
          625       208.437
          626       207.559
          627       206.685
          628       205.816
          629       204.952
          630       204.092
          631       203.237
          632       202.386
          633        201.54
          634       200.699
          635       199.861
          636       199.028
          637         198.2
          638       197.376
          639       196.556
          640       195.741
          641        194.93
          642       194.123
          643       193.321
          644       192.522
          645       191.728
          646       190.938
          647       190.153
          648       189.371
          649       188.593
          650        187.82
          651       187.051
          652       186.285
          653       185.524
          654       184.767
          655       184.014
          656       183.264
          657       182.519
          658       181.777
          659        181.04
          660       180.306
          661       179.576
          662        178.85
          663       178.128
          664       177.409
          665       176.694
          666       175.983
          667       175.276
          668       174.572
          669       173.872
          670       173.176
          671       172.483
          672       171.794
          673       171.109
          674       170.427
          675       169.748
          676       169.073
          677       168.402
          678       167.734
          679        167.07
          680       166.409
          681       165.751
          682       165.097
          683       164.446
          684       163.799
          685       163.154
          686       162.514
          687       161.876
          688       161.242
          689       160.611
          690       159.983
          691       159.359
          692       158.738
          693       158.119
          694       157.505
          695       156.893
          696       156.284
          697       155.679
          698       155.076
          699       154.477
          700       153.881
          701       153.287
          702       152.697
          703        152.11
          704       151.526
          705       150.945
          706       150.366
          707       149.791
          708       149.218
          709       148.649
          710       148.082
          711       147.519
          712       146.958
          713         146.4
          714       145.844
          715       145.292
          716       144.742
          717       144.195
          718       143.651
          719        143.11
          720       142.571
          721       142.035
          722       141.502
          723       140.971
          724       140.443
          725       139.918
          726       139.395
          727       138.875
          728       138.358
          729       137.843
          730        137.33
          731       136.821
          732       136.313
          733       135.809
          734       135.307
          735       134.807
          736        134.31
          737       133.815
          738       133.323
          739       132.833
          740       132.345
          741        131.86
          742       131.378
          743       130.897
          744       130.419
          745       129.944
          746       129.471
          747           129
          748       128.531
          749       128.065
          750       127.601
          751       127.139
          752        126.68
          753       126.222
          754       125.768
          755       125.315
          756       124.864
          757       124.416
          758        123.97
          759       123.526
          760       123.084
          761       122.644
          762       122.206
          763       121.771
          764       121.338
          765       120.906
          766       120.477
          767        120.05
          768       119.625
          769       119.202
          770       118.781
          771       118.362
          772       117.945
          773        117.53
          774       117.117
          775       116.706
          776       116.297
          777        115.89
          778       115.485
          779       115.082
          780       114.681
          781       114.281
          782       113.884
          783       113.488
          784       113.095
          785       112.703
          786       112.313
          787       111.925
          788       111.539
          789       111.154
          790       110.772
          791       110.391
          792       110.012
          793       109.634
          794       109.259
          795       108.885
          796       108.513
          797       108.143
          798       107.775
          799       107.408
          800       107.043
          801       106.679
          802       106.318
          803       105.958
          804         105.6
          805       105.243
          806       104.888
          807       104.535
          808       104.183
          809       103.833
          810       103.485
          811       103.138
          812       102.792
          813       102.449
          814       102.107
          815       101.766
          816       101.427
          817        101.09
          818       100.754
          819        100.42
          820       100.087
          821       99.7561
          822       99.4264
          823       99.0982
          824       98.7715
          825       98.4463
          826       98.1226
          827       97.8003
          828       97.4796
          829       97.1602
          830       96.8424
          831       96.5259
          832       96.2109
          833       95.8973
          834       95.5852
          835       95.2744
          836        94.965
          837       94.6571
          838       94.3505
          839       94.0453
          840       93.7414
          841        93.439
          842       93.1378
          843       92.8381
          844       92.5396
          845       92.2425
          846       91.9468
          847       91.6523
          848       91.3592
          849       91.0673
          850       90.7768
          851       90.4875
          852       90.1995
          853       89.9128
          854       89.6274
          855       89.3432
          856       89.0603
          857       88.7786
          858       88.4982
          859        88.219
          860       87.9411
          861       87.6643
          862       87.3888
          863       87.1144
          864       86.8413
          865       86.5694
          866       86.2986
          867       86.0291
          868       85.7607
          869       85.4935
          870       85.2274
          871       84.9625
          872       84.6988
          873       84.4362
          874       84.1747
          875       83.9144
          876       83.6552
          877       83.3971
          878       83.1401
          879       82.8842
          880       82.6295
          881       82.3758
          882       82.1232
          883       81.8717
          884       81.6213
          885       81.3719
          886       81.1236
          887       80.8764
          888       80.6303
          889       80.3851
          890       80.1411
          891        79.898
          892        79.656
          893       79.4151
          894       79.1751
          895       78.9362
          896       78.6983
          897       78.4613
          898       78.2254
          899       77.9905
          900       77.7566
          901       77.5236
          902       77.2917
          903       77.0607
          904       76.8307
          905       76.6016
          906       76.3735
          907       76.1464
          908       75.9202
          909       75.6949
          910       75.4706
          911       75.2473
          912       75.0248
          913       74.8033
          914       74.5827
          915        74.363
          916       74.1443
          917       73.9264
          918       73.7094
          919       73.4934
          920       73.2782
          921       73.0639
          922       72.8505
          923        72.638
          924       72.4263
          925       72.2155
          926       72.0056
          927       71.7966
          928       71.5884
          929        71.381
          930       71.1745
          931       70.9689
          932        70.764
          933         70.56
          934       70.3569
          935       70.1546
          936        69.953
          937       69.7523
          938       69.5525
          939       69.3534
          940       69.1551
          941       68.9577
          942        68.761
          943       68.5651
          944         68.37
          945       68.1757
          946       67.9822
          947       67.7894
          948       67.5975
          949       67.4063
          950       67.2158
          951       67.0261
          952       66.8372
          953       66.6491
          954       66.4616
          955        66.275
          956        66.089
          957       65.9038
          958       65.7194
          959       65.5357
          960       65.3527
          961       65.1704
          962       64.9888
          963        64.808
          964       64.6279
          965       64.4484
          966       64.2697
          967       64.0917
          968       63.9144
          969       63.7378
          970       63.5619
          971       63.3867
          972       63.2121
          973       63.0382
          974       62.8651
          975       62.6925
          976       62.5207
          977       62.3495
          978        62.179
          979       62.0092
          980         61.84
          981       61.6715
          982       61.5036
          983       61.3363
          984       61.1698
          985       61.0038
          986       60.8385
          987       60.6739
          988       60.5098
          989       60.3464
          990       60.1836
          991       60.0215
          992         59.86
          993        59.699
          994       59.5388
          995       59.3791
          996         59.22
          997       59.0615
          998       58.9037
          999       58.7464
         1000       58.5897
         1001       58.4336
         1002       58.2782
         1003       58.1233
         1004        57.969
         1005       57.8152
         1006       57.6621
         1007       57.5095
         1008       57.3575
         1009       57.2061
         1010       57.0553
         1011        56.905
         1012       56.7553
         1013       56.6061
         1014       56.4575
         1015       56.3095
         1016        56.162
         1017        56.015
         1018       55.8686
         1019       55.7228
         1020       55.5775
         1021       55.4327
         1022       55.2885
         1023       55.1448
         1024       55.0016
         1025        54.859
         1026       54.7169
         1027       54.5753
         1028       54.4343
         1029       54.2937
         1030       54.1537
         1031       54.0142
         1032       53.8752
         1033       53.7368
         1034       53.5988
         1035       53.4613
         1036       53.3244
         1037       53.1879
         1038        53.052
         1039       52.9165
         1040       52.7815
         1041        52.647
         1042        52.513
         1043       52.3795
         1044       52.2465
         1045        52.114
         1046       51.9819
         1047       51.8504
         1048       51.7193
         1049       51.5886
         1050       51.4585
         1051       51.3288
         1052       51.1996
         1053       51.0708
         1054       50.9425
         1055       50.8147
         1056       50.6873
         1057       50.5604
         1058        50.434
         1059        50.308
         1060       50.1824
         1061       50.0573
         1062       49.9326
         1063       49.8084
         1064       49.6846
         1065       49.5613
         1066       49.4384
         1067        49.316
         1068       49.1939