# Probe 0 (0.05 0.05 0.005)
#       Probe             0
#        Time
            1      0.039962
            2      0.039962
            3      0.039962
            4      0.039962
            5      0.039962
            6      0.039962
            7      0.039962
            8      0.039962
            9      0.039962
           10      0.039962
           11     0.0399619
           12     0.0399619
           13     0.0399619
           14     0.0399619
           15     0.0399619
           16     0.0399619
           17     0.0399619
           18     0.0399618
           19     0.0399618
           20     0.0399618
           21     0.0399617
           22     0.0399617
           23     0.0399616
           24     0.0399615
           25     0.0399614
           26     0.0399614
           27     0.0399613
           28     0.0399611
           29      0.039961
           30     0.0399609
           31     0.0399607
           32     0.0399606
           33     0.0399604
           34     0.0399602
           35     0.0399599
           36     0.0399597
           37     0.0399594
           38     0.0399591
           39     0.0399588
           40     0.0399585
           41     0.0399581
           42     0.0399577
           43     0.0399573
           44     0.0399568
           45     0.0399564
           46     0.0399558
           47     0.0399553
           48     0.0399547
           49     0.0399541
           50     0.0399534
           51     0.0399527
           52     0.0399519
           53     0.0399511
           54     0.0399503
           55     0.0399494
           56     0.0399484
           57     0.0399474
           58     0.0399464
           59     0.0399453
           60     0.0399441
           61     0.0399428
           62     0.0399416
           63     0.0399402
           64     0.0399388
           65     0.0399373
           66     0.0399357
           67     0.0399341
           68     0.0399324
           69     0.0399306
           70     0.0399287
           71     0.0399268
           72     0.0399247
           73     0.0399226
           74     0.0399204
           75     0.0399181
           76     0.0399157
           77     0.0399132
           78     0.0399106
           79     0.0399079
           80     0.0399051
           81     0.0399022
           82     0.0398992
           83      0.039896
           84     0.0398928
           85     0.0398894
           86     0.0398859
           87     0.0398823
           88     0.0398786
           89     0.0398747
           90     0.0398707
           91     0.0398666
           92     0.0398623
           93     0.0398579
           94     0.0398534
           95     0.0398487
           96     0.0398438
           97     0.0398388
           98     0.0398337
           99     0.0398283
          100     0.0398228
          101     0.0398172
          102     0.0398114
          103     0.0398054
          104     0.0397992
          105     0.0397929
          106     0.0397863
          107     0.0397796
          108     0.0397727
          109     0.0397656
          110     0.0397583
          111     0.0397508
          112     0.0397431
          113     0.0397352
          114     0.0397271
          115     0.0397188
          116     0.0397103
          117     0.0397015
          118     0.0396925
          119     0.0396833
          120     0.0396738
          121     0.0396642
          122     0.0396543
          123     0.0396441
          124     0.0396337
          125      0.039623
          126     0.0396121
          127      0.039601
          128     0.0395895
          129     0.0395778
          130     0.0395659
          131     0.0395536
          132     0.0395411
          133     0.0395284
          134     0.0395153
          135     0.0395019
          136     0.0394883
          137     0.0394743
          138     0.0394601
          139     0.0394456
          140     0.0394307
          141     0.0394156
          142     0.0394001
          143     0.0393843
          144     0.0393682
          145     0.0393518
          146      0.039335
          147     0.0393179
          148     0.0393005
          149     0.0392827
          150     0.0392646
          151     0.0392461
          152     0.0392273
          153     0.0392081
          154     0.0391886
          155     0.0391687
          156     0.0391484
          157     0.0391278
          158     0.0391068
          159     0.0390854
          160     0.0390636
          161     0.0390415
          162     0.0390189
          163      0.038996
          164     0.0389727
          165     0.0389489
          166     0.0389248
          167     0.0389002
          168     0.0388753
          169     0.0388499
          170     0.0388241
          171     0.0387979
          172     0.0387713
          173     0.0387442
          174     0.0387167
          175     0.0386888
          176     0.0386604
          177     0.0386316
          178     0.0386024
          179     0.0385727
          180     0.0385425
          181     0.0385119
          182     0.0384809
          183     0.0384493
          184     0.0384173
          185     0.0383849
          186      0.038352
          187     0.0383186
          188     0.0382847
          189     0.0382503
          190     0.0382155
          191     0.0381802
          192     0.0381444
          193     0.0381081
          194     0.0380713
          195      0.038034
          196     0.0379963
          197      0.037958
          198     0.0379192
          199     0.0378799
          200     0.0378402
          201     0.0377999
          202     0.0377591
          203     0.0377177
          204     0.0376759
          205     0.0376336
          206     0.0375907
          207     0.0375473
          208     0.0375034
          209      0.037459
          210     0.0374141
          211     0.0373686
          212     0.0373226
          213      0.037276
          214      0.037229
          215     0.0371814
          216     0.0371333
          217     0.0370846
          218     0.0370354
          219     0.0369857
          220     0.0369354
          221     0.0368846
          222     0.0368333
          223     0.0367814
          224      0.036729
          225      0.036676
          226     0.0366225
          227     0.0365685
          228     0.0365139
          229     0.0364588
          230     0.0364032
          231      0.036347
          232     0.0362902
          233     0.0362329
          234     0.0361751
          235     0.0361168
          236     0.0360579
          237     0.0359985
          238     0.0359385
          239      0.035878
          240      0.035817
          241     0.0357554
          242     0.0356933
          243     0.0356307
          244     0.0355675
          245     0.0355038
          246     0.0354396
          247     0.0353748
          248     0.0353095
          249     0.0352437
          250     0.0351774
          251     0.0351106
          252     0.0350432
          253     0.0349753
          254     0.0349069
          255      0.034838
          256     0.0347686
          257     0.0346987
          258     0.0346283
          259     0.0345574
          260     0.0344859
          261      0.034414
          262     0.0343416
          263     0.0342687
          264     0.0341953
          265     0.0341214
          266     0.0340471
          267     0.0339722
          268     0.0338969
          269     0.0338211
          270     0.0337449
          271     0.0336682
          272      0.033591
          273     0.0335134
          274     0.0334353
          275     0.0333567
          276     0.0332777
          277     0.0331983
          278     0.0331184
          279     0.0330382
          280     0.0329574
          281     0.0328763
          282     0.0327947
          283     0.0327127
          284     0.0326303
          285     0.0325475
          286     0.0324643
          287     0.0323807
          288     0.0322967
          289     0.0322123
          290     0.0321275
          291     0.0320424
          292     0.0319569
          293      0.031871
          294     0.0317847
          295     0.0316981
          296     0.0316112
          297     0.0315239
          298     0.0314362
          299     0.0313482
          300     0.0312599
          301     0.0311713
          302     0.0310823
          303      0.030993
          304     0.0309034
          305     0.0308136
          306     0.0307234
          307     0.0306329
          308     0.0305421
          309     0.0304511
          310     0.0303597
          311     0.0302682
          312     0.0301763
          313     0.0300842
          314     0.0299918
          315     0.0298992
          316     0.0298064
          317     0.0297133
          318       0.02962
          319     0.0295265
          320     0.0294327
          321     0.0293388
          322     0.0292446
          323     0.0291502
          324     0.0290557
          325      0.028961
          326     0.0288661
          327      0.028771
          328     0.0286757
          329     0.0285803
          330     0.0284847
          331      0.028389
          332     0.0282932
          333     0.0281972
          334     0.0281011
          335     0.0280048
          336     0.0279084
          337      0.027812
          338     0.0277154
          339     0.0276187
          340     0.0275219
          341      0.027425
          342     0.0273281
          343      0.027231
          344     0.0271339
          345     0.0270368
          346     0.0269395
          347     0.0268423
          348     0.0267449
          349     0.0266476
          350     0.0265502
          351     0.0264527
          352     0.0263553
          353     0.0262578
          354     0.0261603
          355     0.0260628
          356     0.0259653
          357     0.0258678
          358     0.0257703
          359     0.0256729
          360     0.0255754
          361      0.025478
          362     0.0253806
          363     0.0252833
          364     0.0251859
          365     0.0250887
          366     0.0249915
          367     0.0248943
          368     0.0247972
          369     0.0247002
          370     0.0246032
          371     0.0245063
          372     0.0244095
          373     0.0243128
          374     0.0242162
          375     0.0241197
          376     0.0240233
          377     0.0239269
          378     0.0238307
          379     0.0237347
          380     0.0236387
          381     0.0235428
          382     0.0234471
          383     0.0233515
          384     0.0232561
          385     0.0231608
          386     0.0230656
          387     0.0229706
          388     0.0228758
          389     0.0227811
          390     0.0226866
          391     0.0225922
          392      0.022498
          393      0.022404
          394     0.0223101
          395     0.0222165
          396      0.022123
          397     0.0220297
          398     0.0219366
          399     0.0218437
          400      0.021751
          401     0.0216585
          402     0.0215662
          403     0.0214741
          404     0.0213822
          405     0.0212906
          406     0.0211991
          407     0.0211079
          408     0.0210169
          409     0.0209261
          410     0.0208356
          411     0.0207453
          412     0.0206552
          413     0.0205654
          414     0.0204758
          415     0.0203864
          416     0.0202973
          417     0.0202085
          418     0.0201199
          419     0.0200315
          420     0.0199434
          421     0.0198556
          422      0.019768
          423     0.0196807
          424     0.0195937
          425     0.0195069
          426     0.0194204
          427     0.0193341
          428     0.0192482
          429     0.0191625
          430      0.019077
          431     0.0189919
          432      0.018907
          433     0.0188225
          434     0.0187382
          435     0.0186541
          436     0.0185704
          437      0.018487
          438     0.0184038
          439      0.018321
          440     0.0182384
          441     0.0181561
          442     0.0180741
          443     0.0179924
          444     0.0179111
          445       0.01783
          446     0.0177492
          447     0.0176687
          448     0.0175885
          449     0.0175086
          450      0.017429
          451     0.0173497
          452     0.0172707
          453      0.017192
          454     0.0171137
          455     0.0170356
          456     0.0169578
          457     0.0168804
          458     0.0168032
          459     0.0167264
          460     0.0166499
          461     0.0165736
          462     0.0164977
          463     0.0164221
          464     0.0163468
          465     0.0162719
          466     0.0161972
          467     0.0161228
          468     0.0160488
          469     0.0159751
          470     0.0159017
          471     0.0158286
          472     0.0157558
          473     0.0156833
          474     0.0156111
          475     0.0155392
          476     0.0154677
          477     0.0153965
          478     0.0153256
          479     0.0152549
          480     0.0151847
          481     0.0151147
          482      0.015045
          483     0.0149756
          484     0.0149066
          485     0.0148379
          486     0.0147694
          487     0.0147013
          488     0.0146335
          489      0.014566
          490     0.0144988
          491     0.0144319
          492     0.0143654
          493     0.0142991
          494     0.0142332
          495     0.0141675
          496     0.0141022
          497     0.0140371
          498     0.0139724
          499      0.013908
          500     0.0138439
          501     0.0137801
          502     0.0137165
          503     0.0136533
          504     0.0135904
          505     0.0135278
          506     0.0134655
          507     0.0134035
          508     0.0133418
          509     0.0132804
          510     0.0132193
          511     0.0131585
          512      0.013098
          513     0.0130377
          514     0.0129778
          515     0.0129182
          516     0.0128589
          517     0.0127998
          518     0.0127411
          519     0.0126826
          520     0.0126244
          521     0.0125665
          522     0.0125089
          523     0.0124516
          524     0.0123946
          525     0.0123379
          526     0.0122814
          527     0.0122252
          528     0.0121693
          529     0.0121137
          530     0.0120584
          531     0.0120034
          532     0.0119486
          533     0.0118941
          534     0.0118399
          535     0.0117859
          536     0.0117323
          537     0.0116789
          538     0.0116258
          539     0.0115729
          540     0.0115203
          541      0.011468
          542      0.011416
          543     0.0113642
          544     0.0113127
          545     0.0112615
          546     0.0112105
          547     0.0111598
          548     0.0111093
          549     0.0110591
          550     0.0110092
          551     0.0109595
          552     0.0109101
          553      0.010861
          554     0.0108121
          555     0.0107634
          556      0.010715
          557     0.0106669
          558      0.010619
          559     0.0105713
          560     0.0105239
          561     0.0104768
          562     0.0104299
          563     0.0103832
          564     0.0103368
          565     0.0102907
          566     0.0102447
          567     0.0101991
          568     0.0101536
          569     0.0101084
          570     0.0100635
          571     0.0100187
          572    0.00997423
          573    0.00992997
          574    0.00988595
          575    0.00984215
          576    0.00979859
          577    0.00975526
          578    0.00971216
          579    0.00966928
          580    0.00962663
          581    0.00958421
          582    0.00954201
          583    0.00950003
          584    0.00945828
          585    0.00941675
          586    0.00937544
          587    0.00933434
          588    0.00929347
          589    0.00925281
          590    0.00921237
          591    0.00917214
          592    0.00913212
          593    0.00909232
          594    0.00905273
          595    0.00901335
          596    0.00897417
          597    0.00893521
          598    0.00889645
          599     0.0088579
          600    0.00881955
          601    0.00878141
          602    0.00874347
          603    0.00870573
          604    0.00866819
          605    0.00863086
          606    0.00859372
          607    0.00855677
          608    0.00852003
          609    0.00848347
          610    0.00844712
          611    0.00841095
          612    0.00837498
          613     0.0083392
          614    0.00830361
          615    0.00826821
          616    0.00823299
          617    0.00819797
          618    0.00816313
          619    0.00812847
          620      0.008094
          621    0.00805971
          622     0.0080256
          623    0.00799168
          624    0.00795793
          625    0.00792437
          626    0.00789098
          627    0.00785776
          628    0.00782473
          629    0.00779187
          630    0.00775918
          631    0.00772667
          632    0.00769433
          633    0.00766216
          634    0.00763016
          635    0.00759833
          636    0.00756666
          637    0.00753517
          638    0.00750384
          639    0.00747268
          640    0.00744168
          641    0.00741084
          642    0.00738017
          643    0.00734966
          644    0.00731931
          645    0.00728912
          646    0.00725909
          647    0.00722922
          648     0.0071995
          649    0.00716995
          650    0.00714054
          651    0.00711129
          652     0.0070822
          653    0.00705326
          654    0.00702447
          655    0.00699583
          656    0.00696734
          657      0.006939
          658    0.00691081
          659    0.00688277
          660    0.00685487
          661    0.00682712
          662    0.00679952
          663    0.00677206
          664    0.00674474
          665    0.00671757
          666    0.00669053
          667    0.00666364
          668    0.00663689
          669    0.00661028
          670    0.00658381
          671    0.00655747
          672    0.00653127
          673    0.00650521
          674    0.00647928
          675    0.00645349
          676    0.00642783
          677    0.00640231
          678    0.00637692
          679    0.00635165
          680    0.00632652
          681    0.00630152
          682    0.00627665
          683    0.00625191
          684    0.00622729
          685     0.0062028
          686    0.00617844
          687    0.00615421
          688     0.0061301
          689    0.00610611
          690    0.00608224
          691     0.0060585
          692    0.00603488
          693    0.00601138
          694    0.00598801
          695    0.00596475
          696    0.00594161
          697    0.00591859
          698    0.00589569
          699     0.0058729
          700    0.00585023
          701    0.00582768
          702    0.00580524
          703    0.00578292
          704    0.00576071
          705    0.00573861
          706    0.00571662
          707    0.00569475
          708    0.00567299
          709    0.00565133
          710    0.00562979
          711    0.00560836
          712    0.00558703
          713    0.00556582
          714    0.00554471
          715     0.0055237
          716    0.00550281
          717    0.00548201
          718    0.00546133
          719    0.00544074
          720    0.00542026
          721    0.00539989
          722    0.00537961
          723    0.00535944
          724    0.00533937
          725     0.0053194
          726    0.00529953
          727    0.00527975
          728    0.00526008
          729    0.00524051
          730    0.00522103
          731    0.00520165
          732    0.00518236
          733    0.00516318
          734    0.00514408
          735    0.00512509
          736    0.00510618
          737    0.00508737
          738    0.00506866
          739    0.00505003
          740     0.0050315
          741    0.00501306
          742    0.00499471
          743    0.00497645
          744    0.00495828
          745     0.0049402
          746    0.00492221
          747    0.00490431
          748     0.0048865
          749    0.00486877
          750    0.00485113
          751    0.00483358
          752    0.00481611
          753    0.00479873
          754    0.00478143
          755    0.00476422
          756    0.00474709
          757    0.00473004
          758    0.00471308
          759     0.0046962
          760     0.0046794
          761    0.00466268
          762    0.00464605
          763    0.00462949
          764    0.00461302
          765    0.00459662
          766     0.0045803
          767    0.00456407
          768    0.00454791
          769    0.00453182
          770    0.00451582
          771    0.00449989
          772    0.00448404
          773    0.00446827
          774    0.00445257
          775    0.00443694
          776    0.00442139
          777    0.00440592
          778    0.00439052
          779    0.00437519
          780    0.00435993
          781    0.00434475
          782    0.00432964
          783     0.0043146
          784    0.00429964
          785    0.00428474
          786    0.00426992
          787    0.00425516
          788    0.00424048
          789    0.00422586
          790    0.00421131
          791    0.00419684
          792    0.00418243
          793    0.00416808
          794    0.00415381
          795     0.0041396
          796    0.00412546
          797    0.00411138
          798    0.00409737
          799    0.00408343
          800    0.00406955
          801    0.00405574
          802    0.00404199
          803    0.00402831
          804    0.00401468
          805    0.00400113
          806    0.00398763
          807     0.0039742
          808    0.00396083
          809    0.00394752
          810    0.00393427
          811    0.00392109
          812    0.00390796
          813     0.0038949
          814     0.0038819
          815    0.00386895
          816    0.00385607
          817    0.00384324
          818    0.00383048
          819    0.00381777
          820    0.00380512
          821    0.00379253
          822    0.00377999
          823    0.00376752
          824     0.0037551
          825    0.00374273
          826    0.00373042
          827    0.00371817
          828    0.00370598
          829    0.00369384
          830    0.00368175
          831    0.00366972
          832    0.00365775
          833    0.00364582
          834    0.00363396
          835    0.00362214
          836    0.00361038
          837    0.00359867
          838    0.00358702
          839    0.00357541
          840    0.00356386
          841    0.00355236
          842    0.00354091
          843    0.00352952
          844    0.00351817
          845    0.00350688
          846    0.00349563
          847    0.00348444
          848    0.00347329
          849     0.0034622
          850    0.00345115
          851    0.00344015
          852    0.00342921
          853    0.00341831
          854    0.00340745
          855    0.00339665
          856    0.00338589
          857    0.00337519
          858    0.00336452
          859    0.00335391
          860    0.00334334
          861    0.00333282
          862    0.00332235
          863    0.00331192
          864    0.00330153
          865    0.00329119
          866     0.0032809
          867    0.00327065
          868    0.00326045
          869    0.00325029
          870    0.00324018
          871    0.00323011
          872    0.00322008
          873    0.00321009
          874    0.00320015
          875    0.00319026
          876     0.0031804
          877    0.00317059
          878    0.00316082
          879    0.00315109
          880    0.00314141
          881    0.00313176
          882    0.00312216
          883     0.0031126
          884    0.00310308
          885     0.0030936
          886    0.00308416
          887    0.00307476
          888     0.0030654
          889    0.00305608
          890     0.0030468
          891    0.00303756
          892    0.00302836
          893     0.0030192
          894    0.00301008
          895      0.003001
          896    0.00299195
          897    0.00298294
          898    0.00297397
          899    0.00296504
          900    0.00295615
          901    0.00294729
          902    0.00293847
          903    0.00292969
          904    0.00292095
          905    0.00291224
          906    0.00290357
          907    0.00289493
          908    0.00288633
          909    0.00287777
          910    0.00286924
          911    0.00286075
          912    0.00285229
          913    0.00284387
          914    0.00283549
          915    0.00282713
          916    0.00281882
          917    0.00281053
          918    0.00280229
          919    0.00279407
          920    0.00278589
          921    0.00277774
          922    0.00276963
          923    0.00276155
          924     0.0027535
          925    0.00274549
          926    0.00273751
          927    0.00272956
          928    0.00272165
          929    0.00271376
          930    0.00270591
          931    0.00269809
          932    0.00269031
          933    0.00268255
          934    0.00267483
          935    0.00266714
          936    0.00265947
          937    0.00265184
          938    0.00264425
          939    0.00263668
          940    0.00262914
          941    0.00262163
          942    0.00261416
          943    0.00260671
          944    0.00259929
          945     0.0025919
          946    0.00258455
          947    0.00257722
          948    0.00256992
          949    0.00256265
          950    0.00255541
          951     0.0025482
          952    0.00254102
          953    0.00253386
          954    0.00252674
          955    0.00251964
          956    0.00251257
          957    0.00250553
          958    0.00249852
          959    0.00249153
          960    0.00248458
          961    0.00247765
          962    0.00247075
          963    0.00246387
          964    0.00245702
          965     0.0024502
          966    0.00244341
          967    0.00243664
          968     0.0024299
          969    0.00242318
          970     0.0024165
          971    0.00240983
          972     0.0024032
          973    0.00239659
          974       0.00239
          975    0.00238344
          976    0.00237691
          977     0.0023704
          978    0.00236392
          979    0.00235746
          980    0.00235103
          981    0.00234463
          982    0.00233824
          983    0.00233189
          984    0.00232555
          985    0.00231924
          986    0.00231296
          987     0.0023067
          988    0.00230046
          989    0.00229425
          990    0.00228806
          991     0.0022819
          992    0.00227576
          993    0.00226964
          994    0.00226354
          995    0.00225747
          996    0.00225143
          997     0.0022454
          998     0.0022394
          999    0.00223342
         1000    0.00222746
         1001    0.00222153
         1002    0.00221562
         1003    0.00220973
         1004    0.00220386
         1005    0.00219802
         1006     0.0021922
         1007     0.0021864
         1008    0.00218062
         1009    0.00217486
         1010    0.00216913
         1011    0.00216341
         1012    0.00215772
         1013    0.00215205
         1014     0.0021464
         1015    0.00214077
         1016    0.00213517
         1017    0.00212958
         1018    0.00212401
         1019    0.00211847
         1020    0.00211294
         1021    0.00210744
         1022    0.00210196
         1023    0.00209649
         1024    0.00209105
         1025    0.00208563
         1026    0.00208023
         1027    0.00207484
         1028    0.00206948
         1029    0.00206414
         1030    0.00205882
         1031    0.00205351
         1032    0.00204823
         1033    0.00204296
         1034    0.00203772
         1035    0.00203249
         1036    0.00202729
         1037     0.0020221
         1038    0.00201693
         1039    0.00201178
         1040    0.00200665
         1041    0.00200153
         1042    0.00199644
         1043    0.00199137
         1044    0.00198631
         1045    0.00198127
         1046    0.00197625
         1047    0.00197125
         1048    0.00196626
         1049     0.0019613
         1050    0.00195635
         1051    0.00195142
         1052    0.00194651
         1053    0.00194161
         1054    0.00193673
         1055    0.00193187
         1056    0.00192703
         1057    0.00192221
         1058     0.0019174
         1059    0.00191261
         1060    0.00190783
         1061    0.00190308
         1062    0.00189834
         1063    0.00189362
         1064    0.00188891
         1065    0.00188422
         1066    0.00187955
         1067    0.00187489
         1068    0.00187025