# Probe 0 (0.05 0.05 0.005)
#       Probe             0
#        Time
            1       1052.13
            2       1052.13
            3       1052.13
            4       1052.13
            5       1052.13
            6       1052.13
            7       1052.13
            8       1052.13
            9       1052.13
           10       1052.13
           11       1052.13
           12       1052.13
           13       1052.13
           14       1052.13
           15       1052.13
           16       1052.13
           17       1052.13
           18       1052.13
           19       1052.13
           20       1052.13
           21       1052.13
           22       1052.12
           23       1052.12
           24       1052.12
           25       1052.12
           26       1052.12
           27       1052.11
           28       1052.11
           29       1052.11
           30        1052.1
           31        1052.1
           32        1052.1
           33       1052.09
           34       1052.09
           35       1052.08
           36       1052.07
           37       1052.07
           38       1052.06
           39       1052.05
           40       1052.04
           41       1052.03
           42       1052.02
           43       1052.01
           44          1052
           45       1051.99
           46       1051.97
           47       1051.96
           48       1051.94
           49       1051.92
           50       1051.91
           51       1051.89
           52       1051.87
           53       1051.85
           54       1051.83
           55        1051.8
           56       1051.78
           57       1051.75
           58       1051.72
           59       1051.69
           60       1051.66
           61       1051.63
           62        1051.6
           63       1051.56
           64       1051.52
           65       1051.48
           66       1051.44
           67        1051.4
           68       1051.35
           69       1051.31
           70       1051.26
           71       1051.21
           72       1051.15
           73        1051.1
           74       1051.04
           75       1050.98
           76       1050.92
           77       1050.85
           78       1050.78
           79       1050.71
           80       1050.64
           81       1050.56
           82       1050.48
           83        1050.4
           84       1050.31
           85       1050.22
           86       1050.13
           87       1050.04
           88       1049.94
           89       1049.84
           90       1049.73
           91       1049.62
           92       1049.51
           93        1049.4
           94       1049.28
           95       1049.15
           96       1049.03
           97       1048.89
           98       1048.76
           99       1048.62
          100       1048.47
          101       1048.32
          102       1048.17
          103       1048.01
          104       1047.85
          105       1047.68
          106       1047.51
          107       1047.34
          108       1047.15
          109       1046.97
          110       1046.78
          111       1046.58
          112       1046.38
          113       1046.17
          114       1045.96
          115       1045.74
          116       1045.51
          117       1045.28
          118       1045.05
          119        1044.8
          120       1044.55
          121        1044.3
          122       1044.04
          123       1043.77
          124        1043.5
          125       1043.22
          126       1042.93
          127       1042.64
          128       1042.34
          129       1042.03
          130       1041.71
          131       1041.39
          132       1041.06
          133       1040.73
          134       1040.38
          135       1040.03
          136       1039.67
          137       1039.31
          138       1038.93
          139       1038.55
          140       1038.16
          141       1037.76
          142       1037.35
          143       1036.94
          144       1036.51
          145       1036.08
          146       1035.64
          147       1035.19
          148       1034.73
          149       1034.27
          150       1033.79
          151        1033.3
          152       1032.81
          153        1032.3
          154       1031.79
          155       1031.27
          156       1030.73
          157       1030.19
          158       1029.64
          159       1029.08
          160        1028.5
          161       1027.92
          162       1027.33
          163       1026.72
          164       1026.11
          165       1025.49
          166       1024.85
          167       1024.21
          168       1023.55
          169       1022.88
          170        1022.2
          171       1021.51
          172       1020.81
          173        1020.1
          174       1019.38
          175       1018.64
          176        1017.9
          177       1017.14
          178       1016.37
          179       1015.59
          180        1014.8
          181       1013.99
          182       1013.17
          183       1012.35
          184        1011.5
          185       1010.65
          186       1009.78
          187       1008.91
          188       1008.01
          189       1007.11
          190        1006.2
          191       1005.27
          192       1004.32
          193       1003.37
          194        1002.4
          195       1001.42
          196       1000.43
          197       999.422
          198       998.402
          199       997.369
          200       996.322
          201       995.262
          202       994.189
          203       993.102
          204       992.002
          205       990.888
          206       989.761
          207        988.62
          208       987.465
          209       986.297
          210       985.114
          211       983.918
          212       982.708
          213       981.484
          214       980.246
          215       978.995
          216       977.729
          217       976.449
          218       975.155
          219       973.847
          220       972.525
          221       971.188
          222       969.838
          223       968.473
          224       967.095
          225       965.702
          226       964.295
          227       962.873
          228       961.438
          229       959.988
          230       958.524
          231       957.046
          232       955.554
          233       954.047
          234       952.527
          235       950.992
          236       949.443
          237        947.88
          238       946.302
          239       944.711
          240       943.105
          241       941.486
          242       939.852
          243       938.205
          244       936.543
          245       934.868
          246       933.179
          247       931.475
          248       929.758
          249       928.028
          250       926.283
          251       924.525
          252       922.753
          253       920.968
          254       919.169
          255       917.356
          256       915.531
          257       913.692
          258       911.839
          259       909.974
          260       908.095
          261       906.203
          262       904.299
          263       902.381
          264        900.45
          265       898.507
          266       896.551
          267       894.583
          268       892.602
          269       890.609
          270       888.603
          271       886.585
          272       884.555
          273       882.513
          274       880.459
          275       878.393
          276       876.315
          277       874.226
          278       872.126
          279       870.014
          280        867.89
          281       865.756
          282        863.61
          283       861.453
          284       859.286
          285       857.108
          286       854.919
          287        852.72
          288       850.511
          289       848.291
          290       846.062
          291       843.822
          292       841.572
          293       839.313
          294       837.045
          295       834.767
          296       832.479
          297       830.183
          298       827.877
          299       825.563
          300        823.24
          301       820.908
          302       818.568
          303        816.22
          304       813.863
          305       811.499
          306       809.127
          307       806.747
          308       804.359
          309       801.965
          310       799.563
          311       797.153
          312       794.737
          313       792.315
          314       789.885
          315       787.449
          316       785.007
          317       782.559
          318       780.104
          319       777.644
          320       775.178
          321       772.707
          322       770.231
          323       767.749
          324       765.262
          325        762.77
          326       760.274
          327       757.773
          328       755.267
          329       752.757
          330       750.244
          331       747.726
          332       745.205
          333        742.68
          334       740.151
          335        737.62
          336       735.085
          337       732.547
          338       730.006
          339       727.463
          340       724.917
          341       722.369
          342       719.819
          343       717.267
          344       714.713
          345       712.157
          346         709.6
          347       707.041
          348       704.481
          349        701.92
          350       699.358
          351       696.795
          352       694.232
          353       691.668
          354       689.103
          355       686.539
          356       683.974
          357        681.41
          358       678.846
          359       676.282
          360       673.719
          361       671.156
          362       668.595
          363       666.034
          364       663.474
          365       660.916
          366       658.358
          367       655.803
          368       653.249
          369       650.697
          370       648.146
          371       645.598
          372       643.052
          373       640.508
          374       637.967
          375       635.428
          376       632.892
          377       630.358
          378       627.828
          379       625.301
          380       622.776
          381       620.255
          382       617.738
          383       615.223
          384       612.713
          385       610.206
          386       607.703
          387       605.204
          388       602.709
          389       600.218
          390       597.732
          391        595.25
          392       592.772
          393       590.299
          394        587.83
          395       585.367
          396       582.908
          397       580.454
          398       578.005
          399       575.562
          400       573.123
          401        570.69
          402       568.262
          403        565.84
          404       563.423
          405       561.012
          406       558.607
          407       556.208
          408       553.814
          409       551.427
          410       549.045
          411        546.67
          412       544.301
          413       541.938
          414       539.581
          415       537.231
          416       534.887
          417        532.55
          418        530.22
          419       527.896
          420       525.579
          421       523.268
          422       520.965
          423       518.668
          424       516.379
          425       514.096
          426        511.82
          427       509.552
          428       507.291
          429       505.036
          430        502.79
          431        500.55
          432       498.318
          433       496.093
          434       493.876
          435       491.666
          436       489.464
          437       487.269
          438       485.082
          439       482.902
          440        480.73
          441       478.566
          442        476.41
          443       474.261
          444        472.12
          445       469.987
          446       467.862
          447       465.745
          448       463.635
          449       461.534
          450        459.44
          451       457.355
          452       455.277
          453       453.208
          454       451.146
          455       449.093
          456       447.047
          457        445.01
          458       442.981
          459        440.96
          460       438.947
          461       436.942
          462       434.945
          463       432.957
          464       430.977
          465       429.004
          466        427.04
          467       425.085
          468       423.137
          469       421.198
          470       419.267
          471       417.344
          472       415.429
          473       413.522
          474       411.624
          475       409.734
          476       407.852
          477       405.979
          478       404.113
          479       402.256
          480       400.407
          481       398.566
          482       396.734
          483       394.909
          484       393.093
          485       391.285
          486       389.485
          487       387.693
          488        385.91
          489       384.134
          490       382.367
          491       380.608
          492       378.857
          493       377.114
          494       375.379
          495       373.653
          496       371.934
          497       370.223
          498       368.521
          499       366.826
          500        365.14
          501       363.461
          502       361.791
          503       360.128
          504       358.474
          505       356.827
          506       355.188
          507       353.557
          508       351.934
          509       350.319
          510       348.712
          511       347.112
          512        345.52
          513       343.936
          514        342.36
          515       340.791
          516       339.231
          517       337.678
          518       336.132
          519       334.594
          520       333.064
          521       331.542
          522       330.027
          523       328.519
          524       327.019
          525       325.527
          526       324.042
          527       322.564
          528       321.094
          529       319.632
          530       318.176
          531       316.728
          532       315.288
          533       313.854
          534       312.428
          535        311.01
          536       309.598
          537       308.194
          538       306.796
          539       305.406
          540       304.023
          541       302.647
          542       301.279
          543       299.917
          544       298.562
          545       297.214
          546       295.873
          547       294.539
          548       293.212
          549       291.892
          550       290.579
          551       289.272
          552       287.972
          553       286.679
          554       285.393
          555       284.113
          556        282.84
          557       281.574
          558       280.314
          559       279.061
          560       277.815
          561       276.575
          562       275.341
          563       274.114
          564       272.893
          565       271.679
          566       270.471
          567       269.269
          568       268.074
          569       266.885
          570       265.702
          571       264.526
          572       263.355
          573       262.191
          574       261.033
          575       259.881
          576       258.736
          577       257.596
          578       256.462
          579       255.334
          580       254.212
          581       253.097
          582       251.987
          583       250.883
          584       249.784
          585       248.692
          586       247.605
          587       246.524
          588       245.449
          589        244.38
          590       243.316
          591       242.258
          592       241.205
          593       240.158
          594       239.117
          595       238.081
          596       237.051
          597       236.026
          598       235.006
          599       233.992
          600       232.984
          601        231.98
          602       230.982
          603        229.99
          604       229.002
          605        228.02
          606       227.043
          607       226.072
          608       225.105
          609       224.144
          610       223.187
          611       222.236
          612        221.29
          613       220.349
          614       219.413
          615       218.481
          616       217.555
          617       216.634
          618       215.717
          619       214.806
          620       213.899
          621       212.997
          622         212.1
          623       211.208
          624        210.32
          625       209.437
          626       208.559
          627       207.685
          628       206.816
          629       205.952
          630       205.092
          631       204.237
          632       203.386
          633        202.54
          634       201.699
          635       200.861
          636       200.028
          637         199.2
          638       198.376
          639       197.556
          640       196.741
          641        195.93
          642       195.123
          643       194.321
          644       193.522
          645       192.728
          646       191.938
          647       191.153
          648       190.371
          649       189.593
          650        188.82
          651       188.051
          652       187.285
          653       186.524
          654       185.767
          655       185.014
          656       184.264
          657       183.519
          658       182.777
          659        182.04
          660       181.306
          661       180.576
          662        179.85
          663       179.128
          664       178.409
          665       177.694
          666       176.983
          667       176.276
          668       175.572
          669       174.872
          670       174.176
          671       173.483
          672       172.794
          673       172.109
          674       171.427
          675       170.748
          676       170.073
          677       169.402
          678       168.734
          679        168.07
          680       167.409
          681       166.751
          682       166.097
          683       165.446
          684       164.799
          685       164.154
          686       163.514
          687       162.876
          688       162.242
          689       161.611
          690       160.983
          691       160.359
          692       159.738
          693       159.119
          694       158.505
          695       157.893
          696       157.284
          697       156.679
          698       156.076
          699       155.477
          700       154.881
          701       154.287
          702       153.697
          703        153.11
          704       152.526
          705       151.945
          706       151.366
          707       150.791
          708       150.218
          709       149.649
          710       149.082
          711       148.519
          712       147.958
          713         147.4
          714       146.844
          715       146.292
          716       145.742
          717       145.195
          718       144.651
          719        144.11
          720       143.571
          721       143.035
          722       142.502
          723       141.971
          724       141.443
          725       140.918
          726       140.395
          727       139.875
          728       139.358
          729       138.843
          730        138.33
          731       137.821
          732       137.313
          733       136.809
          734       136.307
          735       135.807
          736        135.31
          737       134.815
          738       134.323
          739       133.833
          740       133.345
          741        132.86
          742       132.378
          743       131.897
          744       131.419
          745       130.944
          746       130.471
          747           130
          748       129.531
          749       129.065
          750       128.601
          751       128.139
          752        127.68
          753       127.222
          754       126.768
          755       126.315
          756       125.864
          757       125.416
          758        124.97
          759       124.526
          760       124.084
          761       123.644
          762       123.206
          763       122.771
          764       122.338
          765       121.906
          766       121.477
          767        121.05
          768       120.625
          769       120.202
          770       119.781
          771       119.362
          772       118.945
          773        118.53
          774       118.117
          775       117.706
          776       117.297
          777        116.89
          778       116.485
          779       116.082
          780       115.681
          781       115.281
          782       114.884
          783       114.488
          784       114.095
          785       113.703
          786       113.313
          787       112.925
          788       112.539
          789       112.154
          790       111.772
          791       111.391
          792       111.012
          793       110.634
          794       110.259
          795       109.885
          796       109.513
          797       109.143
          798       108.775
          799       108.408
          800       108.043
          801       107.679
          802       107.318
          803       106.958
          804         106.6
          805       106.243
          806       105.888
          807       105.535
          808       105.183
          809       104.833
          810       104.485
          811       104.138
          812       103.792
          813       103.449
          814       103.107
          815       102.766
          816       102.427
          817        102.09
          818       101.754
          819        101.42
          820       101.087
          821       100.756
          822       100.426
          823       100.098
          824       99.7715
          825       99.4463
          826       99.1226
          827       98.8003
          828       98.4796
          829       98.1602
          830       97.8424
          831       97.5259
          832       97.2109
          833       96.8973
          834       96.5852
          835       96.2744
          836        95.965
          837       95.6571
          838       95.3505
          839       95.0453
          840       94.7414
          841        94.439
          842       94.1378
          843       93.8381
          844       93.5396
          845       93.2425
          846       92.9468
          847       92.6523
          848       92.3592
          849       92.0673
          850       91.7768
          851       91.4875
          852       91.1995
          853       90.9128
          854       90.6274
          855       90.3432
          856       90.0603
          857       89.7786
          858       89.4982
          859        89.219
          860       88.9411
          861       88.6643
          862       88.3888
          863       88.1144
          864       87.8413
          865       87.5694
          866       87.2986
          867       87.0291
          868       86.7607
          869       86.4935
          870       86.2274
          871       85.9625
          872       85.6988
          873       85.4362
          874       85.1747
          875       84.9144
          876       84.6552
          877       84.3971
          878       84.1401
          879       83.8842
          880       83.6295
          881       83.3758
          882       83.1232
          883       82.8717
          884       82.6213
          885       82.3719
          886       82.1236
          887       81.8764
          888       81.6303
          889       81.3851
          890       81.1411
          891        80.898
          892        80.656
          893       80.4151
          894       80.1751
          895       79.9362
          896       79.6983
          897       79.4613
          898       79.2254
          899       78.9905
          900       78.7566
          901       78.5236
          902       78.2917
          903       78.0607
          904       77.8307
          905       77.6016
          906       77.3735
          907       77.1464
          908       76.9202
          909       76.6949
          910       76.4706
          911       76.2473
          912       76.0248
          913       75.8033
          914       75.5827
          915        75.363
          916       75.1443
          917       74.9264
          918       74.7094
          919       74.4934
          920       74.2782
          921       74.0639
          922       73.8505
          923        73.638
          924       73.4263
          925       73.2155
          926       73.0056
          927       72.7966
          928       72.5884
          929        72.381
          930       72.1745
          931       71.9689
          932        71.764
          933         71.56
          934       71.3569
          935       71.1546
          936        70.953
          937       70.7523
          938       70.5525
          939       70.3534
          940       70.1551
          941       69.9577
          942        69.761
          943       69.5651
          944         69.37
          945       69.1757
          946       68.9822
          947       68.7894
          948       68.5975
          949       68.4063
          950       68.2158
          951       68.0261
          952       67.8372
          953       67.6491
          954       67.4616
          955        67.275
          956        67.089
          957       66.9038
          958       66.7194
          959       66.5357
          960       66.3527
          961       66.1704
          962       65.9888
          963        65.808
          964       65.6279
          965       65.4484
          966       65.2697
          967       65.0917
          968       64.9144
          969       64.7378
          970       64.5619
          971       64.3867
          972       64.2121
          973       64.0382
          974       63.8651
          975       63.6925
          976       63.5207
          977       63.3495
          978        63.179
          979       63.0092
          980         62.84
          981       62.6715
          982       62.5036
          983       62.3363
          984       62.1698
          985       62.0038
          986       61.8385
          987       61.6739
          988       61.5098
          989       61.3464
          990       61.1836
          991       61.0215
          992         60.86
          993        60.699
          994       60.5388
          995       60.3791
          996         60.22
          997       60.0615
          998       59.9037
          999       59.7464
         1000       59.5897
         1001       59.4336
         1002       59.2782
         1003       59.1233
         1004        58.969
         1005       58.8152
         1006       58.6621
         1007       58.5095
         1008       58.3575
         1009       58.2061
         1010       58.0553
         1011        57.905
         1012       57.7553
         1013       57.6061
         1014       57.4575
         1015       57.3095
         1016        57.162
         1017        57.015
         1018       56.8686
         1019       56.7228
         1020       56.5775
         1021       56.4327
         1022       56.2885
         1023       56.1448
         1024       56.0016
         1025        55.859
         1026       55.7169
         1027       55.5753
         1028       55.4343
         1029       55.2937
         1030       55.1537
         1031       55.0142
         1032       54.8752
         1033       54.7368
         1034       54.5988
         1035       54.4613
         1036       54.3244
         1037       54.1879
         1038        54.052
         1039       53.9165
         1040       53.7815
         1041        53.647
         1042        53.513
         1043       53.3795
         1044       53.2465
         1045        53.114
         1046       52.9819
         1047       52.8504
         1048       52.7193
         1049       52.5886
         1050       52.4585
         1051       52.3288
         1052       52.1996
         1053       52.0708
         1054       51.9425
         1055       51.8147
         1056       51.6873
         1057       51.5604
         1058        51.434
         1059        51.308
         1060       51.1824
         1061       51.0573
         1062       50.9326
         1063       50.8084
         1064       50.6846
         1065       50.5613
         1066       50.4384
         1067        50.316
         1068       50.1939