1052.107197 
1052.096738 
1051.802409 
1050.521501 
1047.140255 
1040.096650 
1027.506061 
1007.538272 
978.464041 
939.500240 
890.175122 
830.986957 
764.680290 
703.505441 
640.973748 
579.179614 
519.788344 
467.376944 
418.891265 
374.840534 
335.013316 
297.447593 
264.261455 
234.963611 
209.276381 
187.595818 
168.535505 
151.741517 
136.957885 
121.505699 
108.178690 
96.642591 
86.637046 
77.937042 
70.337401 
63.679322 
57.825858 
52.660496 
48.090465 
44.036772 
40.428373 
38.389969 
36.487854 
34.711127 
33.049725 
