0.000000e+00 	1052.107197 
2.500000e+01 	1052.096738 
5.000000e+01 	1051.802409 
7.500000e+01 	1050.521501 
1.000000e+02 	1047.140255 
1.250000e+02 	1040.096650 
1.500000e+02 	1027.506061 
1.750000e+02 	1007.538272 
2.000000e+02 	978.464041 
2.250000e+02 	939.500240 
2.500000e+02 	890.175122 
2.750000e+02 	830.986957 
3.000000e+02 	764.680290 
3.218202e+02 	703.505441 
3.436405e+02 	640.973748 
3.654607e+02 	579.179614 
3.872810e+02 	519.788344 
4.076963e+02 	467.376944 
4.281117e+02 	418.891265 
4.485271e+02 	374.840534 
4.689424e+02 	335.013316 
4.904368e+02 	297.447593 
5.119312e+02 	264.261455 
5.334255e+02 	234.963611 
5.549199e+02 	209.276381 
5.757062e+02 	187.595818 
5.964926e+02 	168.535505 
6.172790e+02 	151.741517 
6.380653e+02 	136.957885 
6.630653e+02 	121.505699 
6.880653e+02 	108.178690 
7.130653e+02 	96.642591 
7.380653e+02 	86.637046 
7.630653e+02 	77.937042 
7.880653e+02 	70.337401 
8.130653e+02 	63.679322 
8.380653e+02 	57.825858 
8.630653e+02 	52.660496 
8.880653e+02 	48.090465 
9.130653e+02 	44.036772 
9.380653e+02 	40.428373 
9.535490e+02 	38.389969 
9.690327e+02 	36.487854 
9.845163e+02 	34.711127 
1.000000e+03 	33.049725 
