# Probe 0 (0.05 0.05 0.005)
#       Probe             0
#        Time
            1       9.06621
            2       9.06621
            3       9.06621
            4       9.06621
            5       9.06621
            6       9.06621
            7       9.06621
            8       9.06621
            9       9.06621
           10       9.06621
           11       9.06621
           12       9.06621
           13       9.06621
           14       9.06621
           15       9.06621
           16       9.06621
           17       9.06621
           18       9.06621
           19       9.06621
           20        9.0662
           21        9.0662
           22        9.0662
           23        9.0662
           24        9.0662
           25       9.06619
           26       9.06619
           27       9.06619
           28       9.06618
           29       9.06618
           30       9.06618
           31       9.06617
           32       9.06617
           33       9.06616
           34       9.06615
           35       9.06615
           36       9.06614
           37       9.06613
           38       9.06612
           39       9.06611
           40        9.0661
           41       9.06609
           42       9.06607
           43       9.06606
           44       9.06604
           45       9.06603
           46       9.06601
           47       9.06599
           48       9.06597
           49       9.06595
           50       9.06593
           51       9.06591
           52       9.06588
           53       9.06586
           54       9.06583
           55        9.0658
           56       9.06577
           57       9.06574
           58        9.0657
           59       9.06567
           60       9.06563
           61       9.06559
           62       9.06555
           63        9.0655
           64       9.06546
           65       9.06541
           66       9.06536
           67        9.0653
           68       9.06525
           69       9.06519
           70       9.06513
           71       9.06506
           72         9.065
           73       9.06493
           74       9.06486
           75       9.06478
           76        9.0647
           77       9.06462
           78       9.06454
           79       9.06445
           80       9.06436
           81       9.06426
           82       9.06416
           83       9.06406
           84       9.06396
           85       9.06385
           86       9.06373
           87       9.06362
           88       9.06349
           89       9.06337
           90       9.06324
           91        9.0631
           92       9.06296
           93       9.06282
           94       9.06267
           95       9.06252
           96       9.06236
           97       9.06219
           98       9.06203
           99       9.06185
          100       9.06167
          101       9.06149
          102        9.0613
          103        9.0611
          104        9.0609
          105       9.06069
          106       9.06048
          107       9.06026
          108       9.06003
          109        9.0598
          110       9.05956
          111       9.05932
          112       9.05906
          113       9.05881
          114       9.05854
          115       9.05827
          116       9.05799
          117        9.0577
          118       9.05741
          119        9.0571
          120       9.05679
          121       9.05648
          122       9.05615
          123       9.05582
          124       9.05547
          125       9.05512
          126       9.05477
          127        9.0544
          128       9.05402
          129       9.05364
          130       9.05325
          131       9.05284
          132       9.05243
          133       9.05201
          134       9.05158
          135       9.05114
          136       9.05069
          137       9.05023
          138       9.04976
          139       9.04928
          140       9.04879
          141       9.04829
          142       9.04778
          143       9.04726
          144       9.04673
          145       9.04618
          146       9.04563
          147       9.04506
          148       9.04448
          149        9.0439
          150        9.0433
          151       9.04268
          152       9.04206
          153       9.04142
          154       9.04077
          155       9.04011
          156       9.03944
          157       9.03875
          158       9.03805
          159       9.03734
          160       9.03662
          161       9.03588
          162       9.03513
          163       9.03436
          164       9.03358
          165       9.03279
          166       9.03198
          167       9.03116
          168       9.03033
          169       9.02948
          170       9.02861
          171       9.02773
          172       9.02684
          173       9.02593
          174       9.02501
          175       9.02407
          176       9.02311
          177       9.02214
          178       9.02116
          179       9.02016
          180       9.01914
          181        9.0181
          182       9.01705
          183       9.01599
          184        9.0149
          185        9.0138
          186       9.01269
          187       9.01155
          188        9.0104
          189       9.00923
          190       9.00805
          191       9.00684
          192       9.00562
          193       9.00438
          194       9.00313
          195       9.00185
          196       9.00056
          197       8.99925
          198       8.99792
          199       8.99657
          200        8.9952
          201       8.99381
          202       8.99241
          203       8.99098
          204       8.98954
          205       8.98807
          206       8.98659
          207       8.98509
          208       8.98357
          209       8.98202
          210       8.98046
          211       8.97888
          212       8.97727
          213       8.97565
          214       8.97401
          215       8.97234
          216       8.97066
          217       8.96895
          218       8.96722
          219       8.96547
          220        8.9637
          221       8.96191
          222        8.9601
          223       8.95826
          224       8.95641
          225       8.95453
          226       8.95263
          227       8.95071
          228       8.94876
          229        8.9468
          230       8.94481
          231        8.9428
          232       8.94077
          233       8.93871
          234       8.93663
          235       8.93453
          236       8.93241
          237       8.93026
          238       8.92809
          239        8.9259
          240       8.92368
          241       8.92144
          242       8.91918
          243       8.91689
          244       8.91458
          245       8.91225
          246       8.90989
          247       8.90751
          248       8.90511
          249       8.90268
          250       8.90023
          251       8.89776
          252       8.89526
          253       8.89273
          254       8.89019
          255       8.88761
          256       8.88502
          257        8.8824
          258       8.87975
          259       8.87709
          260       8.87439
          261       8.87168
          262       8.86894
          263       8.86617
          264       8.86338
          265       8.86056
          266       8.85773
          267       8.85486
          268       8.85197
          269       8.84906
          270       8.84612
          271       8.84316
          272       8.84017
          273       8.83716
          274       8.83413
          275       8.83107
          276       8.82798
          277       8.82487
          278       8.82174
          279       8.81858
          280       8.81539
          281       8.81219
          282       8.80895
          283        8.8057
          284       8.80241
          285       8.79911
          286       8.79578
          287       8.79242
          288       8.78904
          289       8.78564
          290       8.78221
          291       8.77875
          292       8.77527
          293       8.77177
          294       8.76825
          295        8.7647
          296       8.76112
          297       8.75752
          298        8.7539
          299       8.75025
          300       8.74658
          301       8.74288
          302       8.73916
          303       8.73542
          304       8.73165
          305       8.72786
          306       8.72405
          307       8.72021
          308       8.71635
          309       8.71247
          310       8.70856
          311       8.70463
          312       8.70067
          313       8.69669
          314       8.69269
          315       8.68867
          316       8.68462
          317       8.68055
          318       8.67646
          319       8.67234
          320       8.66821
          321       8.66404
          322       8.65986
          323       8.65566
          324       8.65143
          325       8.64718
          326       8.64291
          327       8.63862
          328        8.6343
          329       8.62997
          330       8.62561
          331       8.62123
          332       8.61683
          333        8.6124
          334       8.60796
          335        8.6035
          336       8.59901
          337       8.59451
          338       8.58998
          339       8.58543
          340       8.58087
          341       8.57628
          342       8.57167
          343       8.56704
          344       8.56239
          345       8.55773
          346       8.55304
          347       8.54833
          348       8.54361
          349       8.53886
          350        8.5341
          351       8.52932
          352       8.52451
          353       8.51969
          354       8.51485
          355          8.51
          356       8.50512
          357       8.50023
          358       8.49531
          359       8.49038
          360       8.48544
          361       8.48047
          362       8.47549
          363       8.47049
          364       8.46547
          365       8.46044
          366       8.45539
          367       8.45032
          368       8.44524
          369       8.44014
          370       8.43502
          371       8.42989
          372       8.42474
          373       8.41957
          374       8.41439
          375        8.4092
          376       8.40399
          377       8.39876
          378       8.39352
          379       8.38827
          380         8.383
          381       8.37771
          382       8.37241
          383        8.3671
          384       8.36177
          385       8.35643
          386       8.35107
          387       8.34571
          388       8.34032
          389       8.33493
          390       8.32952
          391        8.3241
          392       8.31866
          393       8.31322
          394       8.30776
          395       8.30228
          396        8.2968
          397        8.2913
          398        8.2858
          399       8.28028
          400       8.27474
          401        8.2692
          402       8.26365
          403       8.25808
          404        8.2525
          405       8.24692
          406       8.24132
          407       8.23571
          408       8.23009
          409       8.22446
          410       8.21882
          411       8.21318
          412       8.20752
          413       8.20185
          414       8.19617
          415       8.19048
          416       8.18479
          417       8.17908
          418       8.17337
          419       8.16764
          420       8.16191
          421       8.15617
          422       8.15043
          423       8.14467
          424        8.1389
          425       8.13313
          426       8.12735
          427       8.12157
          428       8.11577
          429       8.10997
          430       8.10416
          431       8.09834
          432       8.09252
          433       8.08669
          434       8.08085
          435       8.07501
          436       8.06916
          437       8.06331
          438       8.05745
          439       8.05158
          440        8.0457
          441       8.03983
          442       8.03394
          443       8.02805
          444       8.02216
          445       8.01626
          446       8.01035
          447       8.00444
          448       7.99853
          449       7.99261
          450       7.98669
          451       7.98076
          452       7.97483
          453       7.96889
          454       7.96295
          455       7.95701
          456       7.95106
          457       7.94511
          458       7.93915
          459        7.9332
          460       7.92724
          461       7.92127
          462        7.9153
          463       7.90933
          464       7.90336
          465       7.89739
          466       7.89141
          467       7.88543
          468       7.87944
          469       7.87346
          470       7.86747
          471       7.86148
          472       7.85549
          473        7.8495
          474        7.8435
          475       7.83751
          476       7.83151
          477       7.82551
          478       7.81951
          479       7.81351
          480        7.8075
          481        7.8015
          482        7.7955
          483       7.78949
          484       7.78349
          485       7.77748
          486       7.77147
          487       7.76547
          488       7.75946
          489       7.75345
          490       7.74744
          491       7.74143
          492       7.73543
          493       7.72942
          494       7.72341
          495        7.7174
          496        7.7114
          497       7.70539
          498       7.69939
          499       7.69338
          500       7.68738
          501       7.68137
          502       7.67537
          503       7.66937
          504       7.66337
          505       7.65737
          506       7.65137
          507       7.64538
          508       7.63938
          509       7.63339
          510        7.6274
          511       7.62141
          512       7.61542
          513       7.60943
          514       7.60345
          515       7.59747
          516       7.59149
          517       7.58551
          518       7.57953
          519       7.57356
          520       7.56758
          521       7.56161
          522       7.55565
          523       7.54968
          524       7.54372
          525       7.53776
          526        7.5318
          527       7.52585
          528        7.5199
          529       7.51395
          530         7.508
          531       7.50206
          532       7.49612
          533       7.49018
          534       7.48425
          535       7.47832
          536       7.47239
          537       7.46647
          538       7.46055
          539       7.45463
          540       7.44872
          541       7.44281
          542        7.4369
          543         7.431
          544        7.4251
          545       7.41921
          546       7.41332
          547       7.40743
          548       7.40155
          549       7.39567
          550       7.38979
          551       7.38392
          552       7.37805
          553       7.37219
          554       7.36633
          555       7.36048
          556       7.35462
          557       7.34878
          558       7.34294
          559        7.3371
          560       7.33127
          561       7.32544
          562       7.31961
          563       7.31379
          564       7.30798
          565       7.30217
          566       7.29636
          567       7.29056
          568       7.28476
          569       7.27897
          570       7.27319
          571        7.2674
          572       7.26163
          573       7.25585
          574       7.25009
          575       7.24433
          576       7.23857
          577       7.23282
          578       7.22707
          579       7.22133
          580       7.21559
          581       7.20986
          582       7.20413
          583       7.19841
          584        7.1927
          585       7.18698
          586       7.18128
          587       7.17558
          588       7.16988
          589        7.1642
          590       7.15851
          591       7.15283
          592       7.14716
          593       7.14149
          594       7.13583
          595       7.13017
          596       7.12452
          597       7.11888
          598       7.11324
          599        7.1076
          600       7.10198
          601       7.09635
          602       7.09074
          603       7.08513
          604       7.07952
          605       7.07392
          606       7.06833
          607       7.06274
          608       7.05716
          609       7.05158
          610       7.04601
          611       7.04044
          612       7.03488
          613       7.02933
          614       7.02378
          615       7.01824
          616       7.01271
          617       7.00718
          618       7.00166
          619       6.99614
          620       6.99063
          621       6.98512
          622       6.97962
          623       6.97413
          624       6.96864
          625       6.96316
          626       6.95769
          627       6.95222
          628       6.94676
          629        6.9413
          630       6.93585
          631        6.9304
          632       6.92497
          633       6.91953
          634       6.91411
          635       6.90869
          636       6.90328
          637       6.89787
          638       6.89247
          639       6.88707
          640       6.88168
          641        6.8763
          642       6.87093
          643       6.86556
          644       6.86019
          645       6.85484
          646       6.84948
          647       6.84414
          648        6.8388
          649       6.83347
          650       6.82814
          651       6.82283
          652       6.81751
          653       6.81221
          654       6.80691
          655       6.80161
          656       6.79632
          657       6.79104
          658       6.78577
          659        6.7805
          660       6.77524
          661       6.76998
          662       6.76473
          663       6.75949
          664       6.75425
          665       6.74902
          666        6.7438
          667       6.73858
          668       6.73337
          669       6.72816
          670       6.72297
          671       6.71777
          672       6.71259
          673       6.70741
          674       6.70224
          675       6.69707
          676       6.69191
          677       6.68676
          678       6.68161
          679       6.67647
          680       6.67133
          681       6.66621
          682       6.66108
          683       6.65597
          684       6.65086
          685       6.64576
          686       6.64066
          687       6.63557
          688       6.63049
          689       6.62541
          690       6.62034
          691       6.61528
          692       6.61022
          693       6.60517
          694       6.60013
          695       6.59509
          696       6.59005
          697       6.58503
          698       6.58001
          699         6.575
          700       6.56999
          701       6.56499
          702          6.56
          703       6.55501
          704       6.55003
          705       6.54506
          706       6.54009
          707       6.53513
          708       6.53017
          709       6.52522
          710       6.52028
          711       6.51534
          712       6.51041
          713       6.50549
          714       6.50057
          715       6.49566
          716       6.49076
          717       6.48586
          718       6.48097
          719       6.47608
          720        6.4712
          721       6.46633
          722       6.46146
          723        6.4566
          724       6.45175
          725        6.4469
          726       6.44206
          727       6.43722
          728       6.43239
          729       6.42757
          730       6.42275
          731       6.41794
          732       6.41314
          733       6.40834
          734       6.40355
          735       6.39877
          736       6.39399
          737       6.38921
          738       6.38445
          739       6.37969
          740       6.37493
          741       6.37018
          742       6.36544
          743       6.36071
          744       6.35598
          745       6.35126
          746       6.34654
          747       6.34183
          748       6.33712
          749       6.33242
          750       6.32773
          751       6.32305
          752       6.31837
          753       6.31369
          754       6.30902
          755       6.30436
          756       6.29971
          757       6.29506
          758       6.29041
          759       6.28578
          760       6.28115
          761       6.27652
          762        6.2719
          763       6.26729
          764       6.26268
          765       6.25808
          766       6.25348
          767        6.2489
          768       6.24431
          769       6.23974
          770       6.23516
          771        6.2306
          772       6.22604
          773       6.22149
          774       6.21694
          775        6.2124
          776       6.20786
          777       6.20334
          778       6.19881
          779        6.1943
          780       6.18978
          781       6.18528
          782       6.18078
          783       6.17629
          784        6.1718
          785       6.16732
          786       6.16284
          787       6.15837
          788       6.15391
          789       6.14945
          790       6.14499
          791       6.14055
          792       6.13611
          793       6.13167
          794       6.12724
          795       6.12282
          796        6.1184
          797       6.11399
          798       6.10958
          799       6.10518
          800       6.10079
          801        6.0964
          802       6.09202
          803       6.08764
          804       6.08327
          805        6.0789
          806       6.07454
          807       6.07019
          808       6.06584
          809       6.06149
          810       6.05716
          811       6.05282
          812        6.0485
          813       6.04418
          814       6.03986
          815       6.03555
          816       6.03125
          817       6.02695
          818       6.02266
          819       6.01837
          820       6.01409
          821       6.00981
          822       6.00554
          823       6.00128
          824       5.99702
          825       5.99277
          826       5.98852
          827       5.98428
          828       5.98004
          829       5.97581
          830       5.97158
          831       5.96736
          832       5.96314
          833       5.95894
          834       5.95473
          835       5.95053
          836       5.94634
          837       5.94215
          838       5.93797
          839       5.93379
          840       5.92962
          841       5.92545
          842       5.92129
          843       5.91714
          844       5.91299
          845       5.90884
          846        5.9047
          847       5.90057
          848       5.89644
          849       5.89232
          850        5.8882
          851       5.88409
          852       5.87998
          853       5.87588
          854       5.87178
          855       5.86769
          856        5.8636
          857       5.85952
          858       5.85544
          859       5.85137
          860       5.84731
          861       5.84325
          862       5.83919
          863       5.83514
          864        5.8311
          865       5.82706
          866       5.82302
          867       5.81899
          868       5.81497
          869       5.81095
          870       5.80694
          871       5.80293
          872       5.79892
          873       5.79493
          874       5.79093
          875       5.78694
          876       5.78296
          877       5.77898
          878       5.77501
          879       5.77104
          880       5.76708
          881       5.76312
          882       5.75917
          883       5.75522
          884       5.75128
          885       5.74734
          886        5.7434
          887       5.73948
          888       5.73555
          889       5.73164
          890       5.72772
          891       5.72381
          892       5.71991
          893       5.71601
          894       5.71212
          895       5.70823
          896       5.70435
          897       5.70047
          898       5.69659
          899       5.69272
          900       5.68886
          901         5.685
          902       5.68115
          903        5.6773
          904       5.67345
          905       5.66961
          906       5.66578
          907       5.66195
          908       5.65812
          909        5.6543
          910       5.65048
          911       5.64667
          912       5.64287
          913       5.63906
          914       5.63527
          915       5.63148
          916       5.62769
          917        5.6239
          918       5.62013
          919       5.61635
          920       5.61258
          921       5.60882
          922       5.60506
          923       5.60131
          924       5.59756
          925       5.59381
          926       5.59007
          927       5.58633
          928        5.5826
          929       5.57887
          930       5.57515
          931       5.57143
          932       5.56772
          933       5.56401
          934       5.56031
          935       5.55661
          936       5.55291
          937       5.54922
          938       5.54554
          939       5.54186
          940       5.53818
          941       5.53451
          942       5.53084
          943       5.52717
          944       5.52352
          945       5.51986
          946       5.51621
          947       5.51257
          948       5.50892
          949       5.50529
          950       5.50166
          951       5.49803
          952        5.4944
          953       5.49079
          954       5.48717
          955       5.48356
          956       5.47995
          957       5.47635
          958       5.47276
          959       5.46916
          960       5.46558
          961       5.46199
          962       5.45841
          963       5.45484
          964       5.45126
          965        5.4477
          966       5.44414
          967       5.44058
          968       5.43702
          969       5.43347
          970       5.42993
          971       5.42639
          972       5.42285
          973       5.41932
          974       5.41579
          975       5.41227
          976       5.40875
          977       5.40523
          978       5.40172
          979       5.39821
          980       5.39471
          981       5.39121
          982       5.38771
          983       5.38422
          984       5.38074
          985       5.37726
          986       5.37378
          987        5.3703
          988       5.36683
          989       5.36337
          990       5.35991
          991       5.35645
          992         5.353
          993       5.34955
          994        5.3461
          995       5.34266
          996       5.33922
          997       5.33579
          998       5.33236
          999       5.32894
         1000       5.32551
         1001        5.3221
         1002       5.31868
         1003       5.31528
         1004       5.31187
         1005       5.30847
         1006       5.30507
         1007       5.30168
         1008       5.29829
         1009       5.29491
         1010       5.29152
         1011       5.28815
         1012       5.28477
         1013       5.28141
         1014       5.27804
         1015       5.27468
         1016       5.27132
         1017       5.26797
         1018       5.26462
         1019       5.26127
         1020       5.25793
         1021       5.25459
         1022       5.25126
         1023       5.24793
         1024        5.2446
         1025       5.24128
         1026       5.23796
         1027       5.23465
         1028       5.23134
         1029       5.22803
         1030       5.22472
         1031       5.22143
         1032       5.21813
         1033       5.21484
         1034       5.21155
         1035       5.20826
         1036       5.20498
         1037       5.20171
         1038       5.19843
         1039       5.19516
         1040        5.1919
         1041       5.18864
         1042       5.18538
         1043       5.18212
         1044       5.17887
         1045       5.17563
         1046       5.17238
         1047       5.16914
         1048       5.16591
         1049       5.16268
         1050       5.15945
         1051       5.15622
         1052         5.153
         1053       5.14978
         1054       5.14657
         1055       5.14336
         1056       5.14015
         1057       5.13695
         1058       5.13375
         1059       5.13055
         1060       5.12736
         1061       5.12417
         1062       5.12099
         1063       5.11781
         1064       5.11463
         1065       5.11146
         1066       5.10828
         1067       5.10512
         1068       5.10195