# Probe 0 (0.05 0.05 0.005)
#       Probe             0
#        Time
            1   1.16469e+09
            2   1.16469e+09
            3   1.16469e+09
            4   1.16469e+09
            5   1.16469e+09
            6   1.16469e+09
            7   1.16469e+09
            8   1.16469e+09
            9   1.16469e+09
           10   1.16469e+09
           11   1.16469e+09
           12   1.16469e+09
           13   1.16469e+09
           14   1.16469e+09
           15   1.16469e+09
           16   1.16469e+09
           17   1.16468e+09
           18   1.16468e+09
           19   1.16468e+09
           20   1.16468e+09
           21   1.16467e+09
           22   1.16467e+09
           23   1.16466e+09
           24   1.16466e+09
           25   1.16465e+09
           26   1.16464e+09
           27   1.16463e+09
           28   1.16462e+09
           29   1.16461e+09
           30    1.1646e+09
           31   1.16459e+09
           32   1.16457e+09
           33   1.16455e+09
           34   1.16454e+09
           35   1.16452e+09
           36   1.16449e+09
           37   1.16447e+09
           38   1.16445e+09
           39   1.16442e+09
           40   1.16439e+09
           41   1.16436e+09
           42   1.16432e+09
           43   1.16429e+09
           44   1.16425e+09
           45    1.1642e+09
           46   1.16416e+09
           47   1.16411e+09
           48   1.16406e+09
           49     1.164e+09
           50   1.16394e+09
           51   1.16388e+09
           52   1.16382e+09
           53   1.16375e+09
           54   1.16367e+09
           55   1.16359e+09
           56   1.16351e+09
           57   1.16342e+09
           58   1.16333e+09
           59   1.16323e+09
           60   1.16313e+09
           61   1.16302e+09
           62   1.16291e+09
           63   1.16279e+09
           64   1.16267e+09
           65   1.16254e+09
           66    1.1624e+09
           67   1.16226e+09
           68   1.16211e+09
           69   1.16195e+09
           70   1.16179e+09
           71   1.16162e+09
           72   1.16144e+09
           73   1.16126e+09
           74   1.16107e+09
           75   1.16086e+09
           76   1.16066e+09
           77   1.16044e+09
           78   1.16021e+09
           79   1.15998e+09
           80   1.15973e+09
           81   1.15948e+09
           82   1.15922e+09
           83   1.15894e+09
           84   1.15866e+09
           85   1.15837e+09
           86   1.15807e+09
           87   1.15775e+09
           88   1.15743e+09
           89   1.15709e+09
           90   1.15674e+09
           91   1.15638e+09
           92   1.15601e+09
           93   1.15563e+09
           94   1.15523e+09
           95   1.15483e+09
           96    1.1544e+09
           97   1.15397e+09
           98   1.15352e+09
           99   1.15306e+09
          100   1.15258e+09
          101   1.15209e+09
          102   1.15159e+09
          103   1.15107e+09
          104   1.15053e+09
          105   1.14998e+09
          106   1.14942e+09
          107   1.14884e+09
          108   1.14824e+09
          109   1.14763e+09
          110     1.147e+09
          111   1.14635e+09
          112   1.14568e+09
          113     1.145e+09
          114    1.1443e+09
          115   1.14358e+09
          116   1.14284e+09
          117   1.14209e+09
          118   1.14131e+09
          119   1.14052e+09
          120   1.13971e+09
          121   1.13887e+09
          122   1.13802e+09
          123   1.13715e+09
          124   1.13625e+09
          125   1.13534e+09
          126    1.1344e+09
          127   1.13344e+09
          128   1.13246e+09
          129   1.13146e+09
          130   1.13044e+09
          131   1.12939e+09
          132   1.12832e+09
          133   1.12723e+09
          134   1.12611e+09
          135   1.12497e+09
          136    1.1238e+09
          137   1.12262e+09
          138    1.1214e+09
          139   1.12016e+09
          140    1.1189e+09
          141   1.11761e+09
          142    1.1163e+09
          143   1.11496e+09
          144   1.11359e+09
          145    1.1122e+09
          146   1.11078e+09
          147   1.10933e+09
          148   1.10786e+09
          149   1.10636e+09
          150   1.10483e+09
          151   1.10327e+09
          152   1.10169e+09
          153   1.10008e+09
          154   1.09843e+09
          155   1.09676e+09
          156   1.09506e+09
          157   1.09334e+09
          158   1.09158e+09
          159   1.08979e+09
          160   1.08797e+09
          161   1.08612e+09
          162   1.08424e+09
          163   1.08234e+09
          164    1.0804e+09
          165   1.07842e+09
          166   1.07642e+09
          167   1.07439e+09
          168   1.07233e+09
          169   1.07023e+09
          170    1.0681e+09
          171   1.06594e+09
          172   1.06375e+09
          173   1.06153e+09
          174   1.05927e+09
          175   1.05698e+09
          176   1.05466e+09
          177   1.05231e+09
          178   1.04992e+09
          179    1.0475e+09
          180   1.04505e+09
          181   1.04257e+09
          182   1.04005e+09
          183    1.0375e+09
          184   1.03491e+09
          185   1.03229e+09
          186   1.02964e+09
          187   1.02696e+09
          188   1.02424e+09
          189   1.02149e+09
          190    1.0187e+09
          191   1.01588e+09
          192   1.01303e+09
          193   1.01014e+09
          194   1.00722e+09
          195   1.00427e+09
          196   1.00129e+09
          197   9.98266e+08
          198   9.95213e+08
          199   9.92126e+08
          200   9.89007e+08
          201   9.85854e+08
          202   9.82668e+08
          203    9.7945e+08
          204   9.76198e+08
          205   9.72914e+08
          206   9.69597e+08
          207   9.66247e+08
          208   9.62865e+08
          209   9.59451e+08
          210   9.56005e+08
          211   9.52526e+08
          212   9.49016e+08
          213   9.45475e+08
          214   9.41902e+08
          215   9.38298e+08
          216   9.34663e+08
          217   9.30997e+08
          218   9.27301e+08
          219   9.23574e+08
          220   9.19818e+08
          221   9.16031e+08
          222   9.12216e+08
          223   9.08371e+08
          224   9.04497e+08
          225   9.00594e+08
          226   8.96663e+08
          227   8.92704e+08
          228   8.88717e+08
          229   8.84703e+08
          230   8.80662e+08
          231   8.76594e+08
          232     8.725e+08
          233    8.6838e+08
          234   8.64234e+08
          235   8.60063e+08
          236   8.55867e+08
          237   8.51647e+08
          238   8.47402e+08
          239   8.43134e+08
          240   8.38843e+08
          241   8.34529e+08
          242   8.30193e+08
          243   8.25835e+08
          244   8.21455e+08
          245   8.17054e+08
          246   8.12633e+08
          247   8.08191e+08
          248    8.0373e+08
          249    7.9925e+08
          250   7.94751e+08
          251   7.90234e+08
          252     7.857e+08
          253   7.81148e+08
          254   7.76579e+08
          255   7.71995e+08
          256   7.67395e+08
          257   7.62779e+08
          258    7.5815e+08
          259   7.53506e+08
          260   7.48848e+08
          261   7.44178e+08
          262   7.39496e+08
          263   7.34801e+08
          264   7.30095e+08
          265   7.25379e+08
          266   7.20652e+08
          267   7.15915e+08
          268    7.1117e+08
          269   7.06416e+08
          270   7.01654e+08
          271   6.96885e+08
          272   6.92109e+08
          273   6.87326e+08
          274   6.82538e+08
          275   6.77745e+08
          276   6.72948e+08
          277   6.68146e+08
          278   6.63341e+08
          279   6.58534e+08
          280   6.53724e+08
          281   6.48912e+08
          282     6.441e+08
          283   6.39286e+08
          284   6.34473e+08
          285   6.29661e+08
          286    6.2485e+08
          287    6.2004e+08
          288   6.15233e+08
          289   6.10429e+08
          290   6.05628e+08
          291   6.00831e+08
          292   5.96039e+08
          293   5.91252e+08
          294    5.8647e+08
          295   5.81695e+08
          296   5.76926e+08
          297   5.72165e+08
          298   5.67411e+08
          299   5.62666e+08
          300   5.57929e+08
          301   5.53202e+08
          302   5.48485e+08
          303   5.43778e+08
          304   5.39082e+08
          305   5.34397e+08
          306   5.29724e+08
          307   5.25064e+08
          308   5.20416e+08
          309   5.15781e+08
          310   5.11161e+08
          311   5.06554e+08
          312   5.01962e+08
          313   4.97385e+08
          314   4.92824e+08
          315   4.88279e+08
          316    4.8375e+08
          317   4.79238e+08
          318   4.74743e+08
          319   4.70265e+08
          320   4.65806e+08
          321   4.61365e+08
          322   4.56943e+08
          323    4.5254e+08
          324   4.48157e+08
          325   4.43793e+08
          326    4.3945e+08
          327   4.35128e+08
          328   4.30826e+08
          329   4.26545e+08
          330   4.22286e+08
          331   4.18049e+08
          332   4.13835e+08
          333   4.09642e+08
          334   4.05473e+08
          335   4.01326e+08
          336   3.97203e+08
          337   3.93103e+08
          338   3.89027e+08
          339   3.84975e+08
          340   3.80948e+08
          341   3.76945e+08
          342   3.72967e+08
          343   3.69014e+08
          344   3.65086e+08
          345   3.61183e+08
          346   3.57306e+08
          347   3.53455e+08
          348   3.49629e+08
          349    3.4583e+08
          350   3.42057e+08
          351    3.3831e+08
          352    3.3459e+08
          353   3.30897e+08
          354    3.2723e+08
          355    3.2359e+08
          356   3.19978e+08
          357   3.16392e+08
          358   3.12834e+08
          359   3.09303e+08
          360   3.05799e+08
          361   3.02323e+08
          362   2.98874e+08
          363   2.95453e+08
          364    2.9206e+08
          365   2.88694e+08
          366   2.85356e+08
          367   2.82046e+08
          368   2.78764e+08
          369   2.75509e+08
          370   2.72282e+08
          371   2.69083e+08
          372   2.65912e+08
          373   2.62769e+08
          374   2.59654e+08
          375   2.56566e+08
          376   2.53506e+08
          377   2.50474e+08
          378    2.4747e+08
          379   2.44493e+08
          380   2.41544e+08
          381   2.38622e+08
          382   2.35729e+08
          383   2.32862e+08
          384   2.30023e+08
          385   2.27211e+08
          386   2.24427e+08
          387   2.21669e+08
          388   2.18939e+08
          389   2.16236e+08
          390    2.1356e+08
          391    2.1091e+08
          392   2.08287e+08
          393   2.05691e+08
          394   2.03122e+08
          395   2.00578e+08
          396   1.98061e+08
          397   1.95571e+08
          398   1.93106e+08
          399   1.90667e+08
          400   1.88254e+08
          401   1.85866e+08
          402   1.83504e+08
          403   1.81168e+08
          404   1.78856e+08
          405    1.7657e+08
          406   1.74309e+08
          407   1.72072e+08
          408    1.6986e+08
          409   1.67673e+08
          410    1.6551e+08
          411   1.63371e+08
          412   1.61256e+08
          413   1.59165e+08
          414   1.57098e+08
          415   1.55054e+08
          416   1.53034e+08
          417   1.51036e+08
          418   1.49062e+08
          419   1.47111e+08
          420   1.45182e+08
          421   1.43276e+08
          422   1.41392e+08
          423    1.3953e+08
          424   1.37691e+08
          425   1.35873e+08
          426   1.34076e+08
          427   1.32302e+08
          428   1.30548e+08
          429   1.28816e+08
          430   1.27104e+08
          431   1.25413e+08
          432   1.23743e+08
          433   1.22093e+08
          434   1.20463e+08
          435   1.18853e+08
          436   1.17263e+08
          437   1.15693e+08
          438   1.14142e+08
          439    1.1261e+08
          440   1.11098e+08
          441   1.09604e+08
          442   1.08129e+08
          443   1.06673e+08
          444   1.05235e+08
          445   1.03815e+08
          446   1.02413e+08
          447   1.01029e+08
          448    9.9662e+07
          449    9.8313e+07
          450   9.69812e+07
          451   9.56665e+07
          452   9.43687e+07
          453   9.30876e+07
          454   9.18231e+07
          455    9.0575e+07
          456    8.9343e+07
          457   8.81271e+07
          458    8.6927e+07
          459   8.57427e+07
          460   8.45738e+07
          461   8.34202e+07
          462   8.22819e+07
          463   8.11585e+07
          464   8.00499e+07
          465    7.8956e+07
          466   7.78766e+07
          467   7.68115e+07
          468   7.57606e+07
          469   7.47236e+07
          470   7.37005e+07
          471   7.26911e+07
          472   7.16952e+07
          473   7.07126e+07
          474   6.97433e+07
          475    6.8787e+07
          476   6.78435e+07
          477   6.69128e+07
          478   6.59947e+07
          479    6.5089e+07
          480   6.41955e+07
          481   6.33142e+07
          482   6.24449e+07
          483   6.15874e+07
          484   6.07415e+07
          485   5.99072e+07
          486   5.90843e+07
          487   5.82727e+07
          488   5.74722e+07
          489   5.66826e+07
          490   5.59039e+07
          491   5.51359e+07
          492   5.43784e+07
          493   5.36314e+07
          494   5.28946e+07
          495    5.2168e+07
          496   5.14515e+07
          497   5.07448e+07
          498    5.0048e+07
          499   4.93607e+07
          500   4.86831e+07
          501   4.80148e+07
          502   4.73557e+07
          503   4.67059e+07
          504    4.6065e+07
          505   4.54331e+07
          506     4.481e+07
          507   4.41956e+07
          508   4.35897e+07
          509   4.29923e+07
          510   4.24032e+07
          511   4.18224e+07
          512   4.12497e+07
          513   4.06849e+07
          514   4.01281e+07
          515   3.95791e+07
          516   3.90378e+07
          517   3.85041e+07
          518   3.79778e+07
          519    3.7459e+07
          520   3.69474e+07
          521    3.6443e+07
          522   3.59457e+07
          523   3.54554e+07
          524   3.49719e+07
          525   3.44953e+07
          526   3.40254e+07
          527   3.35621e+07
          528   3.31053e+07
          529   3.26549e+07
          530   3.22109e+07
          531   3.17732e+07
          532   3.13416e+07
          533   3.09161e+07
          534   3.04966e+07
          535    3.0083e+07
          536   2.96752e+07
          537   2.92732e+07
          538   2.88769e+07
          539   2.84861e+07
          540   2.81009e+07
          541   2.77211e+07
          542   2.73467e+07
          543   2.69775e+07
          544   2.66136e+07
          545   2.62548e+07
          546    2.5901e+07
          547   2.55523e+07
          548   2.52085e+07
          549   2.48695e+07
          550   2.45353e+07
          551   2.42058e+07
          552    2.3881e+07
          553   2.35608e+07
          554    2.3245e+07
          555   2.29338e+07
          556   2.26269e+07
          557   2.23243e+07
          558    2.2026e+07
          559   2.17319e+07
          560    2.1442e+07
          561   2.11562e+07
          562   2.08743e+07
          563   2.05965e+07
          564   2.03225e+07
          565   2.00525e+07
          566   1.97862e+07
          567   1.95236e+07
          568   1.92648e+07
          569   1.90096e+07
          570    1.8758e+07
          571   1.85099e+07
          572   1.82653e+07
          573   1.80242e+07
          574   1.77864e+07
          575    1.7552e+07
          576   1.73208e+07
          577   1.70929e+07
          578   1.68682e+07
          579   1.66467e+07
          580   1.64282e+07
          581   1.62128e+07
          582   1.60005e+07
          583   1.57911e+07
          584   1.55846e+07
          585    1.5381e+07
          586   1.51803e+07
          587   1.49823e+07
          588   1.47872e+07
          589   1.45947e+07
          590   1.44049e+07
          591   1.42178e+07
          592   1.40333e+07
          593   1.38514e+07
          594    1.3672e+07
          595    1.3495e+07
          596   1.33206e+07
          597   1.31486e+07
          598   1.29789e+07
          599   1.28116e+07
          600   1.26467e+07
          601    1.2484e+07
          602   1.23236e+07
          603   1.21654e+07
          604   1.20094e+07
          605   1.18555e+07
          606   1.17038e+07
          607   1.15542e+07
          608   1.14066e+07
          609   1.12611e+07
          610   1.11175e+07
          611    1.0976e+07
          612   1.08364e+07
          613   1.06987e+07
          614   1.05629e+07
          615    1.0429e+07
          616   1.02969e+07
          617   1.01667e+07
          618   1.00382e+07
          619   9.91148e+06
          620    9.7865e+06
          621   9.66322e+06
          622   9.54164e+06
          623   9.42171e+06
          624   9.30342e+06
          625   9.18674e+06
          626   9.07166e+06
          627   8.95814e+06
          628   8.84617e+06
          629   8.73572e+06
          630   8.62677e+06
          631    8.5193e+06
          632   8.41329e+06
          633   8.30872e+06
          634   8.20556e+06
          635    8.1038e+06
          636   8.00341e+06
          637   7.90439e+06
          638   7.80669e+06
          639   7.71032e+06
          640   7.61525e+06
          641   7.52146e+06
          642   7.42892e+06
          643   7.33764e+06
          644   7.24758e+06
          645   7.15873e+06
          646   7.07107e+06
          647   6.98458e+06
          648   6.89925e+06
          649   6.81507e+06
          650   6.73201e+06
          651   6.65005e+06
          652    6.5692e+06
          653   6.48941e+06
          654    6.4107e+06
          655   6.33303e+06
          656   6.25639e+06
          657   6.18077e+06
          658   6.10615e+06
          659   6.03252e+06
          660   5.95987e+06
          661   5.88818e+06
          662   5.81743e+06
          663   5.74762e+06
          664   5.67873e+06
          665   5.61075e+06
          666   5.54367e+06
          667   5.47747e+06
          668   5.41213e+06
          669   5.34766e+06
          670   5.28403e+06
          671   5.22124e+06
          672   5.15926e+06
          673    5.0981e+06
          674   5.03774e+06
          675   4.97817e+06
          676   4.91937e+06
          677   4.86134e+06
          678   4.80406e+06
          679   4.74753e+06
          680   4.69174e+06
          681   4.63666e+06
          682   4.58231e+06
          683   4.52865e+06
          684   4.47569e+06
          685   4.42342e+06
          686   4.37182e+06
          687   4.32088e+06
          688    4.2706e+06
          689   4.22097e+06
          690   4.17198e+06
          691   4.12362e+06
          692   4.07588e+06
          693   4.02875e+06
          694   3.98222e+06
          695   3.93629e+06
          696   3.89094e+06
          697   3.84618e+06
          698   3.80198e+06
          699   3.75835e+06
          700   3.71528e+06
          701   3.67275e+06
          702   3.63076e+06
          703   3.58931e+06
          704   3.54838e+06
          705   3.50796e+06
          706   3.46806e+06
          707   3.42867e+06
          708   3.38977e+06
          709   3.35136e+06
          710   3.31343e+06
          711   3.27598e+06
          712   3.23901e+06
          713   3.20249e+06
          714   3.16644e+06
          715   3.13083e+06
          716   3.09568e+06
          717   3.06096e+06
          718   3.02667e+06
          719   2.99281e+06
          720   2.95938e+06
          721   2.92636e+06
          722   2.89375e+06
          723   2.86154e+06
          724   2.82974e+06
          725   2.79833e+06
          726    2.7673e+06
          727   2.73666e+06
          728    2.7064e+06
          729   2.67652e+06
          730     2.647e+06
          731   2.61784e+06
          732   2.58904e+06
          733    2.5606e+06
          734   2.53251e+06
          735   2.50475e+06
          736   2.47734e+06
          737   2.45027e+06
          738   2.42352e+06
          739    2.3971e+06
          740   2.37101e+06
          741   2.34523e+06
          742   2.31976e+06
          743    2.2946e+06
          744   2.26975e+06
          745    2.2452e+06
          746   2.22095e+06
          747   2.19699e+06
          748   2.17332e+06
          749   2.14993e+06
          750   2.12683e+06
          751     2.104e+06
          752   2.08145e+06
          753   2.05917e+06
          754   2.03715e+06
          755    2.0154e+06
          756   1.99391e+06
          757   1.97268e+06
          758    1.9517e+06
          759   1.93097e+06
          760   1.91049e+06
          761   1.89025e+06
          762   1.87025e+06
          763   1.85049e+06
          764   1.83097e+06
          765   1.81167e+06
          766    1.7926e+06
          767   1.77376e+06
          768   1.75514e+06
          769   1.73674e+06
          770   1.71856e+06
          771   1.70059e+06
          772   1.68283e+06
          773   1.66528e+06
          774   1.64794e+06
          775    1.6308e+06
          776   1.61386e+06
          777   1.59711e+06
          778   1.58057e+06
          779   1.56421e+06
          780   1.54805e+06
          781   1.53207e+06
          782   1.51628e+06
          783   1.50067e+06
          784   1.48524e+06
          785   1.46999e+06
          786   1.45492e+06
          787   1.44002e+06
          788    1.4253e+06
          789   1.41074e+06
          790   1.39635e+06
          791   1.38213e+06
          792   1.36806e+06
          793   1.35416e+06
          794   1.34042e+06
          795   1.32684e+06
          796   1.31341e+06
          797   1.30014e+06
          798   1.28701e+06
          799   1.27404e+06
          800   1.26121e+06
          801   1.24853e+06
          802   1.23599e+06
          803    1.2236e+06
          804   1.21134e+06
          805   1.19922e+06
          806   1.18724e+06
          807    1.1754e+06
          808   1.16369e+06
          809   1.15211e+06
          810   1.14066e+06
          811   1.12934e+06
          812   1.11814e+06
          813   1.10707e+06
          814   1.09613e+06
          815   1.08531e+06
          816    1.0746e+06
          817   1.06402e+06
          818   1.05356e+06
          819   1.04321e+06
          820   1.03297e+06
          821   1.02285e+06
          822   1.01285e+06
          823   1.00295e+06
          824        993161
          825        983481
          826        973908
          827        964440
          828        955077
          829        945816
          830        936657
          831        927599
          832        918639
          833        909778
          834        901013
          835        892344
          836        883770
          837        875288
          838        866899
          839        858601
          840        850393
          841        842274
          842        834243
          843        826299
          844        818440
          845        810667
          846        802976
          847        795369
          848        787843
          849        780399
          850        773033
          851        765747
          852        758539
          853        751408
          854        744352
          855        737372
          856        730467
          857        723634
          858        716874
          859        710186
          860        703569
          861        697022
          862        690544
          863        684134
          864        677792
          865        671517
          866        665308
          867        659164
          868        653084
          869        647068
          870        641115
          871        635225
          872        629396
          873        623628
          874        617920
          875        612271
          876        606681
          877        601149
          878        595674
          879        590257
          880        584895
          881        579588
          882        574337
          883        569139
          884        563996
          885        558905
          886        553866
          887        548879
          888        543943
          889        539058
          890        534222
          891        529437
          892        524699
          893        520011
          894        515370
          895        510776
          896        506228
          897        501727
          898        497272
          899        492861
          900        488496
          901        484174
          902        479896
          903        475661
          904        471468
          905        467318
          906        463209
          907        459142
          908        455115
          909        451128
          910        447182
          911        443275
          912        439406
          913        435577
          914        431785
          915        428031
          916        424314
          917        420634
          918        416991
          919        413383
          920        409811
          921        406275
          922        402773
          923        399306
          924        395873
          925        392473
          926        389107
          927        385774
          928        382473
          929        379205
          930        375969
          931        372764
          932        369590
          933        366448
          934        363335
          935        360253
          936        357201
          937        354179
          938        351186
          939        348221
          940        345285
          941        342378
          942        339499
          943        336647
          944        333822
          945        331025
          946        328255
          947        325511
          948        322793
          949        320102
          950        317435
          951        314795
          952        312179
          953        309589
          954        307023
          955        304481
          956        301964
          957        299470
          958        297000
          959        294553
          960        292129
          961        289728
          962        287350
          963        284994
          964        282660
          965        280348
          966        278058
          967        275789
          968        273542
          969        271315
          970        269109
          971        266924
          972        264759
          973        262614
          974        260489
          975        258384
          976        256298
          977        254232
          978        252185
          979        250156
          980        248147
          981        246155
          982        244183
          983        242228
          984        240291
          985        238372
          986        236471
          987        234587
          988        232720
          989        230870
          990        229037
          991        227221
          992        225421
          993        223638
          994        221871
          995        220120
          996        218385
          997        216665
          998        214961
          999        213273
         1000        211599
         1001        209941
         1002        208298
         1003        206669
         1004        205055
         1005        203456
         1006        201870
         1007        200299
         1008        198743
         1009        197200
         1010        195670
         1011        194155
         1012        192652
         1013        191164
         1014        189688
         1015        188226
         1016        186776
         1017        185339
         1018        183915
         1019        182504
         1020        181105
         1021        179719
         1022        178344
         1023        176982
         1024        175631
         1025        174293
         1026        172966
         1027        171651
         1028        170347
         1029        169055
         1030        167774
         1031        166504
         1032        165245
         1033        163998
         1034        162761
         1035        161534
         1036        160319
         1037        159114
         1038        157919
         1039        156735
         1040        155560
         1041        154396
         1042        153242
         1043        152098
         1044        150964
         1045        149840
         1046        148725
         1047        147620
         1048        146524
         1049        145437
         1050        144360
         1051        143292
         1052        142233
         1053        141183
         1054        140142
         1055        139110
         1056        138087
         1057        137072
         1058        136066
         1059        135069
         1060        134079
         1061        133099
         1062        132126
         1063        131162
         1064        130205
         1065        129257
         1066        128317
         1067        127385
         1068        126460