# Probe 0 (0.05 0.05 0.005)
#       Probe             0
#        Time
       200005   0.000483917
       200010   0.000483912
       200015   0.000483907
       200020   0.000483902
       200025   0.000483897
       200030   0.000483892
       200035   0.000483887
       200040   0.000483882
       200045   0.000483877
       200050   0.000483872
       200055   0.000483867
       200060   0.000483862
       200065   0.000483857
       200070   0.000483852
       200075   0.000483847
       200080   0.000483842
       200085   0.000483837
       200090   0.000483832
       200095   0.000483827
       200100   0.000483822
       200105   0.000483817
       200110   0.000483812
       200115   0.000483807
       200120   0.000483802
       200125   0.000483797
       200130   0.000483792
       200135   0.000483787
       200140   0.000483782
       200145   0.000483777
       200150   0.000483772
       200155   0.000483767
       200160   0.000483762
       200165   0.000483757
       200170   0.000483752
       200175   0.000483747
       200180   0.000483742
       200185   0.000483737
       200190   0.000483732
       200195   0.000483727
       200200   0.000483722
       200205   0.000483717
       200210   0.000483712
       200215   0.000483707
       200220   0.000483702
       200225   0.000483697
       200230   0.000483692
       200235   0.000483687
       200240   0.000483682
       200245   0.000483677
       200250   0.000483672
       200255   0.000483667
       200260   0.000483662
       200265   0.000483657
       200270   0.000483652
       200275   0.000483647
       200280   0.000483642
       200285   0.000483637
       200290   0.000483632
       200295   0.000483627
       200300   0.000483622
       200305   0.000483617
       200310   0.000483612
       200315   0.000483607
       200320   0.000483602
       200325   0.000483598
       200330   0.000483593
       200335   0.000483588
       200340   0.000483583
       200345   0.000483578
       200350   0.000483573
       200355   0.000483568
       200360   0.000483563
       200365   0.000483558
       200370   0.000483553
       200375   0.000483548
       200380   0.000483543
       200385   0.000483538
       200390   0.000483533
       200395   0.000483528
       200400   0.000483523
       200405   0.000483518
       200410   0.000483513
       200415   0.000483508
       200420   0.000483503
       200425   0.000483498
       200430   0.000483493
       200435   0.000483488
       200440   0.000483483
       200445   0.000483479
       200450   0.000483474
       200455   0.000483469
       200460   0.000483464
       200465   0.000483459
       200470   0.000483454
       200475   0.000483449
       200480   0.000483444
       200485   0.000483439
       200490   0.000483434
       200495   0.000483429
       200500   0.000483424
       200505   0.000483419
       200510   0.000483414
       200515   0.000483409
       200520   0.000483404
       200525   0.000483399
       200530   0.000483394
       200535    0.00048339
       200540   0.000483385
       200545    0.00048338
       200550   0.000483375
       200555    0.00048337
       200560   0.000483365
       200565    0.00048336
       200570   0.000483355
       200575    0.00048335
       200580   0.000483345
       200585    0.00048334
       200590   0.000483335
       200595    0.00048333
       200600   0.000483325
       200605   0.000483321
       200610   0.000483316
       200615   0.000483311
       200620   0.000483306
       200625   0.000483301
       200630   0.000483296
       200635   0.000483291
       200640   0.000483286
       200645   0.000483281
       200650   0.000483276
       200655   0.000483271
       200660   0.000483266
       200665   0.000483261
       200670   0.000483257
       200675   0.000483252
       200680   0.000483247
       200685   0.000483242
       200690   0.000483237
       200695   0.000483232
       200700   0.000483227
       200705   0.000483222
       200710   0.000483217
       200715   0.000483212
       200720   0.000483207
       200725   0.000483203
       200730   0.000483198
       200735   0.000483193
       200740   0.000483188
       200745   0.000483183
       200750   0.000483178
       200755   0.000483173
       200760   0.000483168
       200765   0.000483163
       200770   0.000483158
       200775   0.000483153
       200780   0.000483149
       200785   0.000483144
       200790   0.000483139
       200795   0.000483134
       200800   0.000483129
       200805   0.000483124
       200810   0.000483119
       200815   0.000483114
       200820   0.000483109
       200825   0.000483105
       200830     0.0004831
       200835   0.000483095
       200840    0.00048309
       200845   0.000483085
       200850    0.00048308
       200855   0.000483075
       200860    0.00048307
       200865   0.000483065
       200870    0.00048306
       200875   0.000483056
       200880   0.000483051
       200885   0.000483046
       200890   0.000483041
       200895   0.000483036
       200900   0.000483031
       200905   0.000483026
       200910   0.000483021
       200915   0.000483017
       200920   0.000483012
       200925   0.000483007
       200930   0.000483002
       200935   0.000482997
       200940   0.000482992
       200945   0.000482987
       200950   0.000482982
       200955   0.000482978
       200960   0.000482973
       200965   0.000482968
       200970   0.000482963
       200975   0.000482958
       200980   0.000482953
       200985   0.000482948
       200990   0.000482943
       200995   0.000482939
       201000   0.000482934
       201005   0.000482929
       201010   0.000482924
       201015   0.000482919
       201020   0.000482914
       201025   0.000482909
       201030   0.000482905
       201035     0.0004829
       201040   0.000482895
       201045    0.00048289
       201050   0.000482885
       201055    0.00048288
       201060   0.000482875
       201065    0.00048287
       201070   0.000482866
       201075   0.000482861
       201080   0.000482856
       201085   0.000482851
       201090   0.000482846
       201095   0.000482841
       201100   0.000482837
       201105   0.000482832
       201110   0.000482827
       201115   0.000482822
       201120   0.000482817
       201125   0.000482812
       201130   0.000482807
       201135   0.000482803
       201140   0.000482798
       201145   0.000482793
       201150   0.000482788
       201155   0.000482783
       201160   0.000482778
       201165   0.000482773
       201170   0.000482769
       201175   0.000482764
       201180   0.000482759
       201185   0.000482754
       201190   0.000482749
       201195   0.000482744
       201200    0.00048274
       201205   0.000482735
       201210    0.00048273
       201215   0.000482725
       201220    0.00048272
       201225   0.000482715
       201230   0.000482711
       201235   0.000482706
       201240   0.000482701
       201245   0.000482696
       201250   0.000482691
       201255   0.000482686
       201260   0.000482682
       201265   0.000482677
       201270   0.000482672
       201275   0.000482667
       201280   0.000482662
       201285   0.000482657
       201290   0.000482653
       201295   0.000482648
       201300   0.000482643
       201305   0.000482638
       201310   0.000482633
       201315   0.000482629
       201320   0.000482624
       201325   0.000482619
       201330   0.000482614
       201335   0.000482609
       201340   0.000482604
       201345     0.0004826
       201350   0.000482595
       201355    0.00048259
       201360   0.000482585
       201365    0.00048258
       201370   0.000482576
       201375   0.000482571
       201380   0.000482566
       201385   0.000482561
       201390   0.000482556
       201395   0.000482551
       201400   0.000482547
       201405   0.000482542
       201410   0.000482537
       201415   0.000482532
       201420   0.000482527
       201425   0.000482523
       201430   0.000482518
       201435   0.000482513
       201440   0.000482508
       201445   0.000482503
       201450   0.000482499
       201455   0.000482494
       201460   0.000482489
       201465   0.000482484
       201470   0.000482479
       201475   0.000482475
       201480    0.00048247
       201485   0.000482465
       201490    0.00048246
       201495   0.000482455
       201500   0.000482451
       201505   0.000482446
       201510   0.000482441
       201515   0.000482436
       201520   0.000482431
       201525   0.000482427
       201530   0.000482422
       201535   0.000482417
       201540   0.000482412
       201545   0.000482408
       201550   0.000482403
       201555   0.000482398
       201560   0.000482393
       201565   0.000482388
       201570   0.000482384
       201575   0.000482379
       201580   0.000482374
       201585   0.000482369
       201590   0.000482364
       201595    0.00048236
       201600   0.000482355
       201605    0.00048235
       201610   0.000482345
       201615   0.000482341
       201620   0.000482336
       201625   0.000482331
       201630   0.000482326
       201635   0.000482321
       201640   0.000482317
       201645   0.000482312
       201650   0.000482307
       201655   0.000482302
       201660   0.000482298
       201665   0.000482293
       201670   0.000482288
       201675   0.000482283
       201680   0.000482278
       201685   0.000482274
       201690   0.000482269
       201695   0.000482264
       201700   0.000482259
       201705   0.000482255
       201710    0.00048225
       201715   0.000482245
       201720    0.00048224
       201725   0.000482236
       201730   0.000482231
       201735   0.000482226
       201740   0.000482221
       201745   0.000482217
       201750   0.000482212
       201755   0.000482207
       201760   0.000482202
       201765   0.000482198
       201770   0.000482193
       201775   0.000482188
       201780   0.000482183
       201785   0.000482179
       201790   0.000482174
       201795   0.000482169
       201800   0.000482164
       201805   0.000482159
       201810   0.000482155
       201815    0.00048215
       201820   0.000482145
       201825    0.00048214
       201830   0.000482136
       201835   0.000482131
       201840   0.000482126
       201845   0.000482122
       201850   0.000482117
       201855   0.000482112
       201860   0.000482107
       201865   0.000482103
       201870   0.000482098
       201875   0.000482093
       201880   0.000482088
       201885   0.000482084
       201890   0.000482079
       201895   0.000482074
       201900   0.000482069
       201905   0.000482065
       201910    0.00048206
       201915   0.000482055
       201920    0.00048205
       201925   0.000482046
       201930   0.000482041
       201935   0.000482036
       201940   0.000482031
       201945   0.000482027
       201950   0.000482022
       201955   0.000482017
       201960   0.000482013
       201965   0.000482008
       201970   0.000482003
       201975   0.000481998
       201980   0.000481994
       201985   0.000481989
       201990   0.000481984
       201995   0.000481979
       202000   0.000481975
       202005    0.00048197
       202010   0.000481965
       202015   0.000481961
       202020   0.000481956
       202025   0.000481951
       202030   0.000481946
       202035   0.000481942
       202040   0.000481937
       202045   0.000481932
       202050   0.000481928
       202055   0.000481923
       202060   0.000481918
       202065   0.000481913
       202070   0.000481909
       202075   0.000481904
       202080   0.000481899
       202085   0.000481895
       202090    0.00048189
       202095   0.000481885
       202100    0.00048188
       202105   0.000481876
       202110   0.000481871
       202115   0.000481866
       202120   0.000481862
       202125   0.000481857
       202130   0.000481852
       202135   0.000481847
       202140   0.000481843
       202145   0.000481838
       202150   0.000481833
       202155   0.000481829
       202160   0.000481824
       202165   0.000481819
       202170   0.000481815
       202175    0.00048181
       202180   0.000481805
       202185     0.0004818
       202190   0.000481796
       202195   0.000481791
       202200   0.000481786
       202205   0.000481782
       202210   0.000481777
       202215   0.000481772
       202220   0.000481768
       202225   0.000481763
       202230   0.000481758
       202235   0.000481754
       202240   0.000481749
       202245   0.000481744
       202250   0.000481739
       202255   0.000481735
       202260    0.00048173
       202265   0.000481725
       202270   0.000481721
       202275   0.000481716
       202280   0.000481711
       202285   0.000481707
       202290   0.000481702
       202295   0.000481697
       202300   0.000481693
       202305   0.000481688
       202310   0.000481683
       202315   0.000481679
       202320   0.000481674
       202325   0.000481669
       202330   0.000481665
       202335    0.00048166
       202340   0.000481655
       202345   0.000481651
       202350   0.000481646
       202355   0.000481641
       202360   0.000481637
       202365   0.000481632
       202370   0.000481627
       202375   0.000481622
       202380   0.000481618
       202385   0.000481613
       202390   0.000481608
       202395   0.000481604
       202400   0.000481599
       202405   0.000481594
       202410    0.00048159
       202415   0.000481585
       202420    0.00048158
       202425   0.000481576
       202430   0.000481571
       202435   0.000481567
       202440   0.000481562
       202445   0.000481557
       202450   0.000481553
       202455   0.000481548
       202460   0.000481543
       202465   0.000481539
       202470   0.000481534
       202475   0.000481529
       202480   0.000481525
       202485    0.00048152
       202490   0.000481515
       202495   0.000481511
       202500   0.000481506
       202505   0.000481501
       202510   0.000481497
       202515   0.000481492
       202520   0.000481487
       202525   0.000481483
       202530   0.000481478
       202535   0.000481473
       202540   0.000481469
       202545   0.000481464
       202550   0.000481459
       202555   0.000481455
       202560    0.00048145
       202565   0.000481446
       202570   0.000481441
       202575   0.000481436
       202580   0.000481432
       202585   0.000481427
       202590   0.000481422
       202595   0.000481418
       202600   0.000481413
       202605   0.000481408
       202610   0.000481404
       202615   0.000481399
       202620   0.000481394
       202625    0.00048139
       202630   0.000481385
       202635   0.000481381
       202640   0.000481376
       202645   0.000481371
       202650   0.000481367
       202655   0.000481362
       202660   0.000481357
       202665   0.000481353
       202670   0.000481348
       202675   0.000481344
       202680   0.000481339
       202685   0.000481334
       202690    0.00048133
       202695   0.000481325
       202700    0.00048132
       202705   0.000481316
       202710   0.000481311
       202715   0.000481307
       202720   0.000481302
       202725   0.000481297
       202730   0.000481293
       202735   0.000481288
       202740   0.000481283
       202745   0.000481279
       202750   0.000481274
       202755    0.00048127
       202760   0.000481265
       202765    0.00048126
       202770   0.000481256
       202775   0.000481251
       202780   0.000481246
       202785   0.000481242
       202790   0.000481237
       202795   0.000481233
       202800   0.000481228
       202805   0.000481223
       202810   0.000481219
       202815   0.000481214
       202820    0.00048121
       202825   0.000481205
       202830     0.0004812
       202835   0.000481196
       202840   0.000481191
       202845   0.000481187
       202850   0.000481182
       202855   0.000481177
       202860   0.000481173
       202865   0.000481168
       202870   0.000481164
       202875   0.000481159
       202880   0.000481154
       202885    0.00048115
       202890   0.000481145
       202895   0.000481141
       202900   0.000481136
       202905   0.000481131
       202910   0.000481127
       202915   0.000481122
       202920   0.000481118
       202925   0.000481113
       202930   0.000481108
       202935   0.000481104
       202940   0.000481099
       202945   0.000481095
       202950    0.00048109
       202955   0.000481085
       202960   0.000481081
       202965   0.000481076
       202970   0.000481072
       202975   0.000481067
       202980   0.000481062
       202985   0.000481058
       202990   0.000481053
       202995   0.000481049
       203000   0.000481044
       203005    0.00048104
       203010   0.000481035
       203015    0.00048103
       203020   0.000481026
       203025   0.000481021
       203030   0.000481017
       203035   0.000481012
       203040   0.000481007
       203045   0.000481003
       203050   0.000480998
       203055   0.000480994
       203060   0.000480989
       203065   0.000480985
       203070    0.00048098
       203075   0.000480975
       203080   0.000480971
       203085   0.000480966
       203090   0.000480962
       203095   0.000480957
       203100   0.000480953
       203105   0.000480948
       203110   0.000480943
       203115   0.000480939
       203120   0.000480934
       203125    0.00048093
       203130   0.000480925
       203135   0.000480921
       203140   0.000480916
       203145   0.000480911
       203150   0.000480907
       203155   0.000480902
       203160   0.000480898
       203165   0.000480893
       203170   0.000480889
       203175   0.000480884
       203180    0.00048088
       203185   0.000480875
       203190    0.00048087
       203195   0.000480866
       203200   0.000480861
       203205   0.000480857
       203210   0.000480852
       203215   0.000480848
       203220   0.000480843
       203225   0.000480838
       203230   0.000480834
       203235   0.000480829
       203240   0.000480825
       203245    0.00048082
       203250   0.000480816
       203255   0.000480811
       203260   0.000480807
       203265   0.000480802
       203270   0.000480798
       203275   0.000480793
       203280   0.000480788
       203285   0.000480784
       203290   0.000480779
       203295   0.000480775
       203300    0.00048077
       203305   0.000480766
       203310   0.000480761
       203315   0.000480757
       203320   0.000480752
       203325   0.000480748
       203330   0.000480743
       203335   0.000480738
       203340   0.000480734
       203345   0.000480729
       203350   0.000480725
       203355    0.00048072
       203360   0.000480716
       203365   0.000480711
       203370   0.000480707
       203375   0.000480702
       203380   0.000480698
       203385   0.000480693
       203390   0.000480689
       203395   0.000480684
       203400    0.00048068
       203405   0.000480675
       203410    0.00048067
       203415   0.000480666
       203420   0.000480661
       203425   0.000480657
       203430   0.000480652
       203435   0.000480648
       203440   0.000480643
       203445   0.000480639
       203450   0.000480634
       203455    0.00048063
       203460   0.000480625
       203465   0.000480621
       203470   0.000480616
       203475   0.000480612
       203480   0.000480607
       203485   0.000480603
       203490   0.000480598
       203495   0.000480594
       203500   0.000480589
       203505   0.000480585
       203510    0.00048058
       203515   0.000480576
       203520   0.000480571
       203525   0.000480566
       203530   0.000480562
       203535   0.000480557
       203540   0.000480553
       203545   0.000480548
       203550   0.000480544
       203555   0.000480539
       203560   0.000480535
       203565    0.00048053
       203570   0.000480526
       203575   0.000480521
       203580   0.000480517
       203585   0.000480512
       203590   0.000480508
       203595   0.000480503
       203600   0.000480499
       203605   0.000480494
       203610    0.00048049
       203615   0.000480485
       203620   0.000480481
       203625   0.000480476
       203630   0.000480472
       203635   0.000480467
       203640   0.000480463
       203645   0.000480458
       203650   0.000480454
       203655   0.000480449
       203660   0.000480445
       203665    0.00048044
       203670   0.000480436
       203675   0.000480431
       203680   0.000480427
       203685   0.000480422
       203690   0.000480418
       203695   0.000480413
       203700   0.000480409
       203705   0.000480404
       203710     0.0004804
       203715   0.000480395
       203720   0.000480391
       203725   0.000480386
       203730   0.000480382
       203735   0.000480378
       203740   0.000480373
       203745   0.000480369
       203750   0.000480364
       203755    0.00048036
       203760   0.000480355
       203765   0.000480351
       203770   0.000480346
       203775   0.000480342
       203780   0.000480337
       203785   0.000480333
       203790   0.000480328
       203795   0.000480324
       203800   0.000480319
       203805   0.000480315
       203810    0.00048031
       203815   0.000480306
       203820   0.000480301
       203825   0.000480297
       203830   0.000480292
       203835   0.000480288
       203840   0.000480283
       203845   0.000480279
       203850   0.000480275
       203855    0.00048027
       203860   0.000480266
       203865   0.000480261
       203870   0.000480257
       203875   0.000480252
       203880   0.000480248
       203885   0.000480243
       203890   0.000480239
       203895   0.000480234
       203900    0.00048023
       203905   0.000480225
       203910   0.000480221
       203915   0.000480216
       203920   0.000480212
       203925   0.000480208
       203930   0.000480203
       203935   0.000480199
       203940   0.000480194
       203945    0.00048019
       203950   0.000480185
       203955   0.000480181
       203960   0.000480176
       203965   0.000480172
       203970   0.000480167
       203975   0.000480163
       203980   0.000480159
       203985   0.000480154
       203990    0.00048015
       203995   0.000480145
       204000   0.000480141
       204005   0.000480136
       204010   0.000480132
       204015   0.000480127
       204020   0.000480123
       204025   0.000480118
       204030   0.000480114
       204035    0.00048011
       204040   0.000480105
       204045   0.000480101
       204050   0.000480096
       204055   0.000480092
       204060   0.000480087
       204065   0.000480083
       204070   0.000480078
       204075   0.000480074
       204080    0.00048007
       204085   0.000480065
       204090   0.000480061
       204095   0.000480056
       204100   0.000480052
       204105   0.000480047
       204110   0.000480043
       204115   0.000480039
       204120   0.000480034
       204125    0.00048003
       204130   0.000480025
       204135   0.000480021
       204140   0.000480016
       204145   0.000480012
       204150   0.000480008
       204155   0.000480003
       204160   0.000479999
       204165   0.000479994
       204170    0.00047999
       204175   0.000479985
       204180   0.000479981
       204185   0.000479977
       204190   0.000479972
       204195   0.000479968
       204200   0.000479963
       204205   0.000479959
       204210   0.000479954
       204215    0.00047995
       204220   0.000479946
       204225   0.000479941
       204230   0.000479937
       204235   0.000479932
       204240   0.000479928
       204245   0.000479923
       204250   0.000479919
       204255   0.000479915
       204260    0.00047991
       204265   0.000479906
       204270   0.000479901
       204275   0.000479897
       204280   0.000479893
       204285   0.000479888
       204290   0.000479884
       204295   0.000479879
       204300   0.000479875
       204305    0.00047987
       204310   0.000479866
       204315   0.000479862
       204320   0.000479857
       204325   0.000479853
       204330   0.000479848
       204335   0.000479844
       204340    0.00047984
       204345   0.000479835
       204350   0.000479831
       204355   0.000479826
       204360   0.000479822
       204365   0.000479818
       204370   0.000479813
       204375   0.000479809
       204380   0.000479804
       204385     0.0004798
       204390   0.000479796
       204395   0.000479791
       204400   0.000479787
       204405   0.000479782
       204410   0.000479778
       204415   0.000479774
       204420   0.000479769
       204425   0.000479765
       204430    0.00047976
       204435   0.000479756
       204440   0.000479752
       204445   0.000479747
       204450   0.000479743
       204455   0.000479738
       204460   0.000479734
       204465    0.00047973
       204470   0.000479725
       204475   0.000479721
       204480   0.000479717
       204485   0.000479712
       204490   0.000479708
       204495   0.000479703
       204500   0.000479699
       204505   0.000479695
       204510    0.00047969
       204515   0.000479686
       204520   0.000479681
       204525   0.000479677
       204530   0.000479673
       204535   0.000479668
       204540   0.000479664
       204545    0.00047966
       204550   0.000479655
       204555   0.000479651
       204560   0.000479646
       204565   0.000479642
       204570   0.000479638
       204575   0.000479633
       204580   0.000479629
       204585   0.000479625
       204590    0.00047962
       204595   0.000479616
       204600   0.000479611
       204605   0.000479607
       204610   0.000479603
       204615   0.000479598
       204620   0.000479594
       204625    0.00047959
       204630   0.000479585
       204635   0.000479581
       204640   0.000479576
       204645   0.000479572
       204650   0.000479568
       204655   0.000479563
       204660   0.000479559
       204665   0.000479555
       204670    0.00047955
       204675   0.000479546
       204680   0.000479542
       204685   0.000479537
       204690   0.000479533
       204695   0.000479528
       204700   0.000479524
       204705    0.00047952
       204710   0.000479515
       204715   0.000479511
       204720   0.000479507
       204725   0.000479502
       204730   0.000479498
       204735   0.000479494
       204740   0.000479489
       204745   0.000479485
       204750   0.000479481
       204755   0.000479476
       204760   0.000479472
       204765   0.000479467
       204770   0.000479463
       204775   0.000479459
       204780   0.000479454
       204785    0.00047945
       204790   0.000479446
       204795   0.000479441
       204800   0.000479437
       204805   0.000479433
       204810   0.000479428
       204815   0.000479424
       204820    0.00047942
       204825   0.000479415
       204830   0.000479411
       204835   0.000479407
       204840   0.000479402
       204845   0.000479398
       204850   0.000479394
       204855   0.000479389
       204860   0.000479385
       204865   0.000479381
       204870   0.000479376
       204875   0.000479372
       204880   0.000479368
       204885   0.000479363
       204890   0.000479359
       204895   0.000479355
       204900    0.00047935
       204905   0.000479346
       204910   0.000479342
       204915   0.000479337
       204920   0.000479333
       204925   0.000479329
       204930   0.000479324
       204935    0.00047932
       204940   0.000479316
       204945   0.000479311
       204950   0.000479307
       204955   0.000479303
       204960   0.000479298
       204965   0.000479294
       204970    0.00047929
       204975   0.000479285
       204980   0.000479281
       204985   0.000479277
       204990   0.000479272
       204995   0.000479268
       205000   0.000479264
       205005   0.000479259
       205010   0.000479255
       205015   0.000479251
       205020   0.000479246
       205025   0.000479242
       205030   0.000479238
       205035   0.000479233
       205040   0.000479229
       205045   0.000479225
       205050    0.00047922
       205055   0.000479216
       205060   0.000479212
       205065   0.000479208
       205070   0.000479203
       205075   0.000479199
       205080   0.000479195
       205085    0.00047919
       205090   0.000479186
       205095   0.000479182
       205100   0.000479177
       205105   0.000479173
       205110   0.000479169
       205115   0.000479164
       205120    0.00047916
       205125   0.000479156
       205130   0.000479152
       205135   0.000479147
       205140   0.000479143
       205145   0.000479139
       205150   0.000479134
       205155    0.00047913
       205160   0.000479126
       205165   0.000479121
       205170   0.000479117
       205175   0.000479113
       205180   0.000479109
       205185   0.000479104
       205190     0.0004791
       205195   0.000479096
       205200   0.000479091
       205205   0.000479087
       205210   0.000479083
       205215   0.000479078
       205220   0.000479074
       205225    0.00047907
       205230   0.000479066
       205235   0.000479061
       205240   0.000479057
       205245   0.000479053
       205250   0.000479048
       205255   0.000479044
       205260    0.00047904
       205265   0.000479036
       205270   0.000479031
       205275   0.000479027
       205280   0.000479023
       205285   0.000479018
       205290   0.000479014
       205295    0.00047901
       205300   0.000479006
       205305   0.000479001
       205310   0.000478997
       205315   0.000478993
       205320   0.000478988
       205325   0.000478984
       205330    0.00047898
       205335   0.000478976
       205340   0.000478971