# Probe 0 (0.05 0.05 0.005)
#       Probe             0
#        Time
       200005   0.000219042
       200010   0.000219039
       200015   0.000219036
       200020   0.000219033
       200025    0.00021903
       200030   0.000219027
       200035   0.000219024
       200040   0.000219021
       200045   0.000219018
       200050   0.000219015
       200055   0.000219012
       200060   0.000219009
       200065   0.000219006
       200070   0.000219003
       200075      0.000219
       200080   0.000218997
       200085   0.000218994
       200090   0.000218991
       200095   0.000218988
       200100   0.000218985
       200105   0.000218982
       200110   0.000218979
       200115   0.000218976
       200120   0.000218973
       200125    0.00021897
       200130   0.000218967
       200135   0.000218965
       200140   0.000218962
       200145   0.000218959
       200150   0.000218956
       200155   0.000218953
       200160    0.00021895
       200165   0.000218947
       200170   0.000218944
       200175   0.000218941
       200180   0.000218938
       200185   0.000218935
       200190   0.000218932
       200195   0.000218929
       200200   0.000218926
       200205   0.000218923
       200210    0.00021892
       200215   0.000218917
       200220   0.000218914
       200225   0.000218911
       200230   0.000218908
       200235   0.000218905
       200240   0.000218903
       200245     0.0002189
       200250   0.000218897
       200255   0.000218894
       200260   0.000218891
       200265   0.000218888
       200270   0.000218885
       200275   0.000218882
       200280   0.000218879
       200285   0.000218876
       200290   0.000218873
       200295    0.00021887
       200300   0.000218867
       200305   0.000218864
       200310   0.000218861
       200315   0.000218858
       200320   0.000218855
       200325   0.000218852
       200330    0.00021885
       200335   0.000218847
       200340   0.000218844
       200345   0.000218841
       200350   0.000218838
       200355   0.000218835
       200360   0.000218832
       200365   0.000218829
       200370   0.000218826
       200375   0.000218823
       200380    0.00021882
       200385   0.000218817
       200390   0.000218814
       200395   0.000218811
       200400   0.000218808
       200405   0.000218805
       200410   0.000218803
       200415     0.0002188
       200420   0.000218797
       200425   0.000218794
       200430   0.000218791
       200435   0.000218788
       200440   0.000218785
       200445   0.000218782
       200450   0.000218779
       200455   0.000218776
       200460   0.000218773
       200465    0.00021877
       200470   0.000218767
       200475   0.000218764
       200480   0.000218762
       200485   0.000218759
       200490   0.000218756
       200495   0.000218753
       200500    0.00021875
       200505   0.000218747
       200510   0.000218744
       200515   0.000218741
       200520   0.000218738
       200525   0.000218735
       200530   0.000218732
       200535   0.000218729
       200540   0.000218726
       200545   0.000218724
       200550   0.000218721
       200555   0.000218718
       200560   0.000218715
       200565   0.000218712
       200570   0.000218709
       200575   0.000218706
       200580   0.000218703
       200585     0.0002187
       200590   0.000218697
       200595   0.000218694
       200600   0.000218691
       200605   0.000218689
       200610   0.000218686
       200615   0.000218683
       200620    0.00021868
       200625   0.000218677
       200630   0.000218674
       200635   0.000218671
       200640   0.000218668
       200645   0.000218665
       200650   0.000218662
       200655   0.000218659
       200660   0.000218657
       200665   0.000218654
       200670   0.000218651
       200675   0.000218648
       200680   0.000218645
       200685   0.000218642
       200690   0.000218639
       200695   0.000218636
       200700   0.000218633
       200705    0.00021863
       200710   0.000218627
       200715   0.000218625
       200720   0.000218622
       200725   0.000218619
       200730   0.000218616
       200735   0.000218613
       200740    0.00021861
       200745   0.000218607
       200750   0.000218604
       200755   0.000218601
       200760   0.000218598
       200765   0.000218596
       200770   0.000218593
       200775    0.00021859
       200780   0.000218587
       200785   0.000218584
       200790   0.000218581
       200795   0.000218578
       200800   0.000218575
       200805   0.000218572
       200810   0.000218569
       200815   0.000218567
       200820   0.000218564
       200825   0.000218561
       200830   0.000218558
       200835   0.000218555
       200840   0.000218552
       200845   0.000218549
       200850   0.000218546
       200855   0.000218543
       200860    0.00021854
       200865   0.000218538
       200870   0.000218535
       200875   0.000218532
       200880   0.000218529
       200885   0.000218526
       200890   0.000218523
       200895    0.00021852
       200900   0.000218517
       200905   0.000218514
       200910   0.000218512
       200915   0.000218509
       200920   0.000218506
       200925   0.000218503
       200930     0.0002185
       200935   0.000218497
       200940   0.000218494
       200945   0.000218491
       200950   0.000218489
       200955   0.000218486
       200960   0.000218483
       200965    0.00021848
       200970   0.000218477
       200975   0.000218474
       200980   0.000218471
       200985   0.000218468
       200990   0.000218465
       200995   0.000218463
       201000    0.00021846
       201005   0.000218457
       201010   0.000218454
       201015   0.000218451
       201020   0.000218448
       201025   0.000218445
       201030   0.000218442
       201035    0.00021844
       201040   0.000218437
       201045   0.000218434
       201050   0.000218431
       201055   0.000218428
       201060   0.000218425
       201065   0.000218422
       201070   0.000218419
       201075   0.000218417
       201080   0.000218414
       201085   0.000218411
       201090   0.000218408
       201095   0.000218405
       201100   0.000218402
       201105   0.000218399
       201110   0.000218396
       201115   0.000218394
       201120   0.000218391
       201125   0.000218388
       201130   0.000218385
       201135   0.000218382
       201140   0.000218379
       201145   0.000218376
       201150   0.000218374
       201155   0.000218371
       201160   0.000218368
       201165   0.000218365
       201170   0.000218362
       201175   0.000218359
       201180   0.000218356
       201185   0.000218354
       201190   0.000218351
       201195   0.000218348
       201200   0.000218345
       201205   0.000218342
       201210   0.000218339
       201215   0.000218336
       201220   0.000218333
       201225   0.000218331
       201230   0.000218328
       201235   0.000218325
       201240   0.000218322
       201245   0.000218319
       201250   0.000218316
       201255   0.000218313
       201260   0.000218311
       201265   0.000218308
       201270   0.000218305
       201275   0.000218302
       201280   0.000218299
       201285   0.000218296
       201290   0.000218293
       201295   0.000218291
       201300   0.000218288
       201305   0.000218285
       201310   0.000218282
       201315   0.000218279
       201320   0.000218276
       201325   0.000218274
       201330   0.000218271
       201335   0.000218268
       201340   0.000218265
       201345   0.000218262
       201350   0.000218259
       201355   0.000218256
       201360   0.000218254
       201365   0.000218251
       201370   0.000218248
       201375   0.000218245
       201380   0.000218242
       201385   0.000218239
       201390   0.000218237
       201395   0.000218234
       201400   0.000218231
       201405   0.000218228
       201410   0.000218225
       201415   0.000218222
       201420   0.000218219
       201425   0.000218217
       201430   0.000218214
       201435   0.000218211
       201440   0.000218208
       201445   0.000218205
       201450   0.000218202
       201455     0.0002182
       201460   0.000218197
       201465   0.000218194
       201470   0.000218191
       201475   0.000218188
       201480   0.000218185
       201485   0.000218183
       201490    0.00021818
       201495   0.000218177
       201500   0.000218174
       201505   0.000218171
       201510   0.000218168
       201515   0.000218166
       201520   0.000218163
       201525    0.00021816
       201530   0.000218157
       201535   0.000218154
       201540   0.000218151
       201545   0.000218149
       201550   0.000218146
       201555   0.000218143
       201560    0.00021814
       201565   0.000218137
       201570   0.000218134
       201575   0.000218132
       201580   0.000218129
       201585   0.000218126
       201590   0.000218123
       201595    0.00021812
       201600   0.000218117
       201605   0.000218115
       201610   0.000218112
       201615   0.000218109
       201620   0.000218106
       201625   0.000218103
       201630   0.000218101
       201635   0.000218098
       201640   0.000218095
       201645   0.000218092
       201650   0.000218089
       201655   0.000218086
       201660   0.000218084
       201665   0.000218081
       201670   0.000218078
       201675   0.000218075
       201680   0.000218072
       201685   0.000218069
       201690   0.000218067
       201695   0.000218064
       201700   0.000218061
       201705   0.000218058
       201710   0.000218055
       201715   0.000218053
       201720    0.00021805
       201725   0.000218047
       201730   0.000218044
       201735   0.000218041
       201740   0.000218038
       201745   0.000218036
       201750   0.000218033
       201755    0.00021803
       201760   0.000218027
       201765   0.000218024
       201770   0.000218022
       201775   0.000218019
       201780   0.000218016
       201785   0.000218013
       201790    0.00021801
       201795   0.000218008
       201800   0.000218005
       201805   0.000218002
       201810   0.000217999
       201815   0.000217996
       201820   0.000217994
       201825   0.000217991
       201830   0.000217988
       201835   0.000217985
       201840   0.000217982
       201845    0.00021798
       201850   0.000217977
       201855   0.000217974
       201860   0.000217971
       201865   0.000217968
       201870   0.000217965
       201875   0.000217963
       201880    0.00021796
       201885   0.000217957
       201890   0.000217954
       201895   0.000217951
       201900   0.000217949
       201905   0.000217946
       201910   0.000217943
       201915    0.00021794
       201920   0.000217937
       201925   0.000217935
       201930   0.000217932
       201935   0.000217929
       201940   0.000217926
       201945   0.000217924
       201950   0.000217921
       201955   0.000217918
       201960   0.000217915
       201965   0.000217912
       201970    0.00021791
       201975   0.000217907
       201980   0.000217904
       201985   0.000217901
       201990   0.000217898
       201995   0.000217896
       202000   0.000217893
       202005    0.00021789
       202010   0.000217887
       202015   0.000217884
       202020   0.000217882
       202025   0.000217879
       202030   0.000217876
       202035   0.000217873
       202040    0.00021787
       202045   0.000217868
       202050   0.000217865
       202055   0.000217862
       202060   0.000217859
       202065   0.000217857
       202070   0.000217854
       202075   0.000217851
       202080   0.000217848
       202085   0.000217845
       202090   0.000217843
       202095    0.00021784
       202100   0.000217837
       202105   0.000217834
       202110   0.000217831
       202115   0.000217829
       202120   0.000217826
       202125   0.000217823
       202130    0.00021782
       202135   0.000217818
       202140   0.000217815
       202145   0.000217812
       202150   0.000217809
       202155   0.000217806
       202160   0.000217804
       202165   0.000217801
       202170   0.000217798
       202175   0.000217795
       202180   0.000217793
       202185    0.00021779
       202190   0.000217787
       202195   0.000217784
       202200   0.000217781
       202205   0.000217779
       202210   0.000217776
       202215   0.000217773
       202220    0.00021777
       202225   0.000217768
       202230   0.000217765
       202235   0.000217762
       202240   0.000217759
       202245   0.000217757
       202250   0.000217754
       202255   0.000217751
       202260   0.000217748
       202265   0.000217745
       202270   0.000217743
       202275    0.00021774
       202280   0.000217737
       202285   0.000217734
       202290   0.000217732
       202295   0.000217729
       202300   0.000217726
       202305   0.000217723
       202310   0.000217721
       202315   0.000217718
       202320   0.000217715
       202325   0.000217712
       202330    0.00021771
       202335   0.000217707
       202340   0.000217704
       202345   0.000217701
       202350   0.000217698
       202355   0.000217696
       202360   0.000217693
       202365    0.00021769
       202370   0.000217687
       202375   0.000217685
       202380   0.000217682
       202385   0.000217679
       202390   0.000217676
       202395   0.000217674
       202400   0.000217671
       202405   0.000217668
       202410   0.000217665
       202415   0.000217663
       202420    0.00021766
       202425   0.000217657
       202430   0.000217654
       202435   0.000217652
       202440   0.000217649
       202445   0.000217646
       202450   0.000217643
       202455   0.000217641
       202460   0.000217638
       202465   0.000217635
       202470   0.000217632
       202475    0.00021763
       202480   0.000217627
       202485   0.000217624
       202490   0.000217621
       202495   0.000217619
       202500   0.000217616
       202505   0.000217613
       202510    0.00021761
       202515   0.000217608
       202520   0.000217605
       202525   0.000217602
       202530   0.000217599
       202535   0.000217597
       202540   0.000217594
       202545   0.000217591
       202550   0.000217588
       202555   0.000217586
       202560   0.000217583
       202565    0.00021758
       202570   0.000217577
       202575   0.000217575
       202580   0.000217572
       202585   0.000217569
       202590   0.000217566
       202595   0.000217564
       202600   0.000217561
       202605   0.000217558
       202610   0.000217555
       202615   0.000217553
       202620    0.00021755
       202625   0.000217547
       202630   0.000217544
       202635   0.000217542
       202640   0.000217539
       202645   0.000217536
       202650   0.000217534
       202655   0.000217531
       202660   0.000217528
       202665   0.000217525
       202670   0.000217523
       202675    0.00021752
       202680   0.000217517
       202685   0.000217514
       202690   0.000217512
       202695   0.000217509
       202700   0.000217506
       202705   0.000217503
       202710   0.000217501
       202715   0.000217498
       202720   0.000217495
       202725   0.000217493
       202730    0.00021749
       202735   0.000217487
       202740   0.000217484
       202745   0.000217482
       202750   0.000217479
       202755   0.000217476
       202760   0.000217473
       202765   0.000217471
       202770   0.000217468
       202775   0.000217465
       202780   0.000217463
       202785    0.00021746
       202790   0.000217457
       202795   0.000217454
       202800   0.000217452
       202805   0.000217449
       202810   0.000217446
       202815   0.000217444
       202820   0.000217441
       202825   0.000217438
       202830   0.000217435
       202835   0.000217433
       202840    0.00021743
       202845   0.000217427
       202850   0.000217424
       202855   0.000217422
       202860   0.000217419
       202865   0.000217416
       202870   0.000217414
       202875   0.000217411
       202880   0.000217408
       202885   0.000217405
       202890   0.000217403
       202895     0.0002174
       202900   0.000217397
       202905   0.000217395
       202910   0.000217392
       202915   0.000217389
       202920   0.000217386
       202925   0.000217384
       202930   0.000217381
       202935   0.000217378
       202940   0.000217376
       202945   0.000217373
       202950    0.00021737
       202955   0.000217367
       202960   0.000217365
       202965   0.000217362
       202970   0.000217359
       202975   0.000217357
       202980   0.000217354
       202985   0.000217351
       202990   0.000217348
       202995   0.000217346
       203000   0.000217343
       203005    0.00021734
       203010   0.000217338
       203015   0.000217335
       203020   0.000217332
       203025    0.00021733
       203030   0.000217327
       203035   0.000217324
       203040   0.000217321
       203045   0.000217319
       203050   0.000217316
       203055   0.000217313
       203060   0.000217311
       203065   0.000217308
       203070   0.000217305
       203075   0.000217303
       203080     0.0002173
       203085   0.000217297
       203090   0.000217294
       203095   0.000217292
       203100   0.000217289
       203105   0.000217286
       203110   0.000217284
       203115   0.000217281
       203120   0.000217278
       203125   0.000217276
       203130   0.000217273
       203135    0.00021727
       203140   0.000217267
       203145   0.000217265
       203150   0.000217262
       203155   0.000217259
       203160   0.000217257
       203165   0.000217254
       203170   0.000217251
       203175   0.000217249
       203180   0.000217246
       203185   0.000217243
       203190   0.000217241
       203195   0.000217238
       203200   0.000217235
       203205   0.000217232
       203210    0.00021723
       203215   0.000217227
       203220   0.000217224
       203225   0.000217222
       203230   0.000217219
       203235   0.000217216
       203240   0.000217214
       203245   0.000217211
       203250   0.000217208
       203255   0.000217206
       203260   0.000217203
       203265     0.0002172
       203270   0.000217198
       203275   0.000217195
       203280   0.000217192
       203285   0.000217189
       203290   0.000217187
       203295   0.000217184
       203300   0.000217181
       203305   0.000217179
       203310   0.000217176
       203315   0.000217173
       203320   0.000217171
       203325   0.000217168
       203330   0.000217165
       203335   0.000217163
       203340    0.00021716
       203345   0.000217157
       203350   0.000217155
       203355   0.000217152
       203360   0.000217149
       203365   0.000217147
       203370   0.000217144
       203375   0.000217141
       203380   0.000217139
       203385   0.000217136
       203390   0.000217133
       203395   0.000217131
       203400   0.000217128
       203405   0.000217125
       203410   0.000217123
       203415    0.00021712
       203420   0.000217117
       203425   0.000217115
       203430   0.000217112
       203435   0.000217109
       203440   0.000217106
       203445   0.000217104
       203450   0.000217101
       203455   0.000217098
       203460   0.000217096
       203465   0.000217093
       203470    0.00021709
       203475   0.000217088
       203480   0.000217085
       203485   0.000217082
       203490    0.00021708
       203495   0.000217077
       203500   0.000217074
       203505   0.000217072
       203510   0.000217069
       203515   0.000217066
       203520   0.000217064
       203525   0.000217061
       203530   0.000217058
       203535   0.000217056
       203540   0.000217053
       203545   0.000217051
       203550   0.000217048
       203555   0.000217045
       203560   0.000217043
       203565    0.00021704
       203570   0.000217037
       203575   0.000217035
       203580   0.000217032
       203585   0.000217029
       203590   0.000217027
       203595   0.000217024
       203600   0.000217021
       203605   0.000217019
       203610   0.000217016
       203615   0.000217013
       203620   0.000217011
       203625   0.000217008
       203630   0.000217005
       203635   0.000217003
       203640      0.000217
       203645   0.000216997
       203650   0.000216995
       203655   0.000216992
       203660   0.000216989
       203665   0.000216987
       203670   0.000216984
       203675   0.000216981
       203680   0.000216979
       203685   0.000216976
       203690   0.000216973
       203695   0.000216971
       203700   0.000216968
       203705   0.000216966
       203710   0.000216963
       203715    0.00021696
       203720   0.000216958
       203725   0.000216955
       203730   0.000216952
       203735    0.00021695
       203740   0.000216947
       203745   0.000216944
       203750   0.000216942
       203755   0.000216939
       203760   0.000216936
       203765   0.000216934
       203770   0.000216931
       203775   0.000216928
       203780   0.000216926
       203785   0.000216923
       203790   0.000216921
       203795   0.000216918
       203800   0.000216915
       203805   0.000216913
       203810    0.00021691
       203815   0.000216907
       203820   0.000216905
       203825   0.000216902
       203830   0.000216899
       203835   0.000216897
       203840   0.000216894
       203845   0.000216892
       203850   0.000216889
       203855   0.000216886
       203860   0.000216884
       203865   0.000216881
       203870   0.000216878
       203875   0.000216876
       203880   0.000216873
       203885    0.00021687
       203890   0.000216868
       203895   0.000216865
       203900   0.000216863
       203905    0.00021686
       203910   0.000216857
       203915   0.000216855
       203920   0.000216852
       203925   0.000216849
       203930   0.000216847
       203935   0.000216844
       203940   0.000216841
       203945   0.000216839
       203950   0.000216836
       203955   0.000216834
       203960   0.000216831
       203965   0.000216828
       203970   0.000216826
       203975   0.000216823
       203980    0.00021682
       203985   0.000216818
       203990   0.000216815
       203995   0.000216813
       204000    0.00021681
       204005   0.000216807
       204010   0.000216805
       204015   0.000216802
       204020   0.000216799
       204025   0.000216797
       204030   0.000216794
       204035   0.000216792
       204040   0.000216789
       204045   0.000216786
       204050   0.000216784
       204055   0.000216781
       204060   0.000216778
       204065   0.000216776
       204070   0.000216773
       204075   0.000216771
       204080   0.000216768
       204085   0.000216765
       204090   0.000216763
       204095    0.00021676
       204100   0.000216758
       204105   0.000216755
       204110   0.000216752
       204115    0.00021675
       204120   0.000216747
       204125   0.000216744
       204130   0.000216742
       204135   0.000216739
       204140   0.000216737
       204145   0.000216734
       204150   0.000216731
       204155   0.000216729
       204160   0.000216726
       204165   0.000216724
       204170   0.000216721
       204175   0.000216718
       204180   0.000216716
       204185   0.000216713
       204190    0.00021671
       204195   0.000216708
       204200   0.000216705
       204205   0.000216703
       204210     0.0002167
       204215   0.000216697
       204220   0.000216695
       204225   0.000216692
       204230    0.00021669
       204235   0.000216687
       204240   0.000216684
       204245   0.000216682
       204250   0.000216679
       204255   0.000216677
       204260   0.000216674
       204265   0.000216671
       204270   0.000216669
       204275   0.000216666
       204280   0.000216664
       204285   0.000216661
       204290   0.000216658
       204295   0.000216656
       204300   0.000216653
       204305   0.000216651
       204310   0.000216648
       204315   0.000216645
       204320   0.000216643
       204325    0.00021664
       204330   0.000216638
       204335   0.000216635
       204340   0.000216632
       204345    0.00021663
       204350   0.000216627
       204355   0.000216625
       204360   0.000216622
       204365   0.000216619
       204370   0.000216617
       204375   0.000216614
       204380   0.000216612
       204385   0.000216609
       204390   0.000216606
       204395   0.000216604
       204400   0.000216601
       204405   0.000216599
       204410   0.000216596
       204415   0.000216593
       204420   0.000216591
       204425   0.000216588
       204430   0.000216586
       204435   0.000216583
       204440    0.00021658
       204445   0.000216578
       204450   0.000216575
       204455   0.000216573
       204460    0.00021657
       204465   0.000216568
       204470   0.000216565
       204475   0.000216562
       204480    0.00021656
       204485   0.000216557
       204490   0.000216555
       204495   0.000216552
       204500   0.000216549
       204505   0.000216547
       204510   0.000216544
       204515   0.000216542
       204520   0.000216539
       204525   0.000216537
       204530   0.000216534
       204535   0.000216531
       204540   0.000216529
       204545   0.000216526
       204550   0.000216524
       204555   0.000216521
       204560   0.000216518
       204565   0.000216516
       204570   0.000216513
       204575   0.000216511
       204580   0.000216508
       204585   0.000216506
       204590   0.000216503
       204595     0.0002165
       204600   0.000216498
       204605   0.000216495
       204610   0.000216493
       204615    0.00021649
       204620   0.000216487
       204625   0.000216485
       204630   0.000216482
       204635    0.00021648
       204640   0.000216477
       204645   0.000216475
       204650   0.000216472
       204655   0.000216469
       204660   0.000216467
       204665   0.000216464
       204670   0.000216462
       204675   0.000216459
       204680   0.000216457
       204685   0.000216454
       204690   0.000216451
       204695   0.000216449
       204700   0.000216446
       204705   0.000216444
       204710   0.000216441
       204715   0.000216439
       204720   0.000216436
       204725   0.000216433
       204730   0.000216431
       204735   0.000216428
       204740   0.000216426
       204745   0.000216423
       204750   0.000216421
       204755   0.000216418
       204760   0.000216416
       204765   0.000216413
       204770    0.00021641
       204775   0.000216408
       204780   0.000216405
       204785   0.000216403
       204790     0.0002164
       204795   0.000216398
       204800   0.000216395
       204805   0.000216392
       204810    0.00021639
       204815   0.000216387
       204820   0.000216385
       204825   0.000216382
       204830    0.00021638
       204835   0.000216377
       204840   0.000216375
       204845   0.000216372
       204850   0.000216369
       204855   0.000216367
       204860   0.000216364
       204865   0.000216362
       204870   0.000216359
       204875   0.000216357
       204880   0.000216354
       204885   0.000216352
       204890   0.000216349
       204895   0.000216346
       204900   0.000216344
       204905   0.000216341
       204910   0.000216339
       204915   0.000216336
       204920   0.000216334
       204925   0.000216331
       204930   0.000216329
       204935   0.000216326
       204940   0.000216323
       204945   0.000216321
       204950   0.000216318
       204955   0.000216316
       204960   0.000216313
       204965   0.000216311
       204970   0.000216308
       204975   0.000216306
       204980   0.000216303
       204985     0.0002163
       204990   0.000216298
       204995   0.000216295
       205000   0.000216293
       205005    0.00021629
       205010   0.000216288
       205015   0.000216285
       205020   0.000216283
       205025    0.00021628
       205030   0.000216278
       205035   0.000216275
       205040   0.000216272
       205045    0.00021627
       205050   0.000216267
       205055   0.000216265
       205060   0.000216262
       205065    0.00021626
       205070   0.000216257
       205075   0.000216255
       205080   0.000216252
       205085    0.00021625
       205090   0.000216247
       205095   0.000216245
       205100   0.000216242
       205105   0.000216239
       205110   0.000216237
       205115   0.000216234
       205120   0.000216232
       205125   0.000216229
       205130   0.000216227
       205135   0.000216224
       205140   0.000216222
       205145   0.000216219
       205150   0.000216217
       205155   0.000216214
       205160   0.000216212
       205165   0.000216209
       205170   0.000216206
       205175   0.000216204
       205180   0.000216201
       205185   0.000216199
       205190   0.000216196
       205195   0.000216194
       205200   0.000216191
       205205   0.000216189
       205210   0.000216186
       205215   0.000216184
       205220   0.000216181
       205225   0.000216179
       205230   0.000216176
       205235   0.000216174
       205240   0.000216171
       205245   0.000216169
       205250   0.000216166
       205255   0.000216163
       205260   0.000216161
       205265   0.000216158
       205270   0.000216156
       205275   0.000216153
       205280   0.000216151
       205285   0.000216148
       205290   0.000216146
       205295   0.000216143
       205300   0.000216141
       205305   0.000216138
       205310   0.000216136
       205315   0.000216133
       205320   0.000216131
       205325   0.000216128
       205330   0.000216126
       205335   0.000216123
       205340   0.000216121