# Probe 0 (0.05 0.05 0.005)
#       Probe             0
#        Time
       200005   8.67965e-07
       200010   8.67956e-07
       200015   8.67947e-07
       200020   8.67938e-07
       200025   8.67929e-07
       200030    8.6792e-07
       200035   8.67911e-07
       200040   8.67902e-07
       200045   8.67893e-07
       200050   8.67884e-07
       200055   8.67875e-07
       200060   8.67866e-07
       200065   8.67857e-07
       200070   8.67848e-07
       200075   8.67839e-07
       200080    8.6783e-07
       200085   8.67821e-07
       200090   8.67812e-07
       200095   8.67803e-07
       200100   8.67794e-07
       200105   8.67785e-07
       200110   8.67776e-07
       200115   8.67767e-07
       200120   8.67758e-07
       200125   8.67749e-07
       200130   8.67741e-07
       200135   8.67732e-07
       200140   8.67723e-07
       200145   8.67714e-07
       200150   8.67705e-07
       200155   8.67696e-07
       200160   8.67687e-07
       200165   8.67678e-07
       200170   8.67669e-07
       200175    8.6766e-07
       200180   8.67651e-07
       200185   8.67642e-07
       200190   8.67633e-07
       200195   8.67624e-07
       200200   8.67615e-07
       200205   8.67606e-07
       200210   8.67597e-07
       200215   8.67588e-07
       200220   8.67579e-07
       200225    8.6757e-07
       200230   8.67562e-07
       200235   8.67553e-07
       200240   8.67544e-07
       200245   8.67535e-07
       200250   8.67526e-07
       200255   8.67517e-07
       200260   8.67508e-07
       200265   8.67499e-07
       200270    8.6749e-07
       200275   8.67481e-07
       200280   8.67472e-07
       200285   8.67463e-07
       200290   8.67454e-07
       200295   8.67445e-07
       200300   8.67437e-07
       200305   8.67428e-07
       200310   8.67419e-07
       200315    8.6741e-07
       200320   8.67401e-07
       200325   8.67392e-07
       200330   8.67383e-07
       200335   8.67374e-07
       200340   8.67365e-07
       200345   8.67356e-07
       200350   8.67347e-07
       200355   8.67339e-07
       200360    8.6733e-07
       200365   8.67321e-07
       200370   8.67312e-07
       200375   8.67303e-07
       200380   8.67294e-07
       200385   8.67285e-07
       200390   8.67276e-07
       200395   8.67267e-07
       200400   8.67259e-07
       200405    8.6725e-07
       200410   8.67241e-07
       200415   8.67232e-07
       200420   8.67223e-07
       200425   8.67214e-07
       200430   8.67205e-07
       200435   8.67196e-07
       200440   8.67187e-07
       200445   8.67179e-07
       200450    8.6717e-07
       200455   8.67161e-07
       200460   8.67152e-07
       200465   8.67143e-07
       200470   8.67134e-07
       200475   8.67125e-07
       200480   8.67116e-07
       200485   8.67108e-07
       200490   8.67099e-07
       200495    8.6709e-07
       200500   8.67081e-07
       200505   8.67072e-07
       200510   8.67063e-07
       200515   8.67054e-07
       200520   8.67046e-07
       200525   8.67037e-07
       200530   8.67028e-07
       200535   8.67019e-07
       200540    8.6701e-07
       200545   8.67001e-07
       200550   8.66992e-07
       200555   8.66984e-07
       200560   8.66975e-07
       200565   8.66966e-07
       200570   8.66957e-07
       200575   8.66948e-07
       200580   8.66939e-07
       200585   8.66931e-07
       200590   8.66922e-07
       200595   8.66913e-07
       200600   8.66904e-07
       200605   8.66895e-07
       200610   8.66886e-07
       200615   8.66878e-07
       200620   8.66869e-07
       200625    8.6686e-07
       200630   8.66851e-07
       200635   8.66842e-07
       200640   8.66833e-07
       200645   8.66825e-07
       200650   8.66816e-07
       200655   8.66807e-07
       200660   8.66798e-07
       200665   8.66789e-07
       200670    8.6678e-07
       200675   8.66772e-07
       200680   8.66763e-07
       200685   8.66754e-07
       200690   8.66745e-07
       200695   8.66736e-07
       200700   8.66728e-07
       200705   8.66719e-07
       200710    8.6671e-07
       200715   8.66701e-07
       200720   8.66692e-07
       200725   8.66684e-07
       200730   8.66675e-07
       200735   8.66666e-07
       200740   8.66657e-07
       200745   8.66648e-07
       200750    8.6664e-07
       200755   8.66631e-07
       200760   8.66622e-07
       200765   8.66613e-07
       200770   8.66604e-07
       200775   8.66596e-07
       200780   8.66587e-07
       200785   8.66578e-07
       200790   8.66569e-07
       200795    8.6656e-07
       200800   8.66552e-07
       200805   8.66543e-07
       200810   8.66534e-07
       200815   8.66525e-07
       200820   8.66517e-07
       200825   8.66508e-07
       200830   8.66499e-07
       200835    8.6649e-07
       200840   8.66481e-07
       200845   8.66473e-07
       200850   8.66464e-07
       200855   8.66455e-07
       200860   8.66446e-07
       200865   8.66438e-07
       200870   8.66429e-07
       200875    8.6642e-07
       200880   8.66411e-07
       200885   8.66403e-07
       200890   8.66394e-07
       200895   8.66385e-07
       200900   8.66376e-07
       200905   8.66367e-07
       200910   8.66359e-07
       200915    8.6635e-07
       200920   8.66341e-07
       200925   8.66332e-07
       200930   8.66324e-07
       200935   8.66315e-07
       200940   8.66306e-07
       200945   8.66297e-07
       200950   8.66289e-07
       200955    8.6628e-07
       200960   8.66271e-07
       200965   8.66263e-07
       200970   8.66254e-07
       200975   8.66245e-07
       200980   8.66236e-07
       200985   8.66228e-07
       200990   8.66219e-07
       200995    8.6621e-07
       201000   8.66201e-07
       201005   8.66193e-07
       201010   8.66184e-07
       201015   8.66175e-07
       201020   8.66166e-07
       201025   8.66158e-07
       201030   8.66149e-07
       201035    8.6614e-07
       201040   8.66132e-07
       201045   8.66123e-07
       201050   8.66114e-07
       201055   8.66105e-07
       201060   8.66097e-07
       201065   8.66088e-07
       201070   8.66079e-07
       201075   8.66071e-07
       201080   8.66062e-07
       201085   8.66053e-07
       201090   8.66044e-07
       201095   8.66036e-07
       201100   8.66027e-07
       201105   8.66018e-07
       201110    8.6601e-07
       201115   8.66001e-07
       201120   8.65992e-07
       201125   8.65984e-07
       201130   8.65975e-07
       201135   8.65966e-07
       201140   8.65957e-07
       201145   8.65949e-07
       201150    8.6594e-07
       201155   8.65931e-07
       201160   8.65923e-07
       201165   8.65914e-07
       201170   8.65905e-07
       201175   8.65897e-07
       201180   8.65888e-07
       201185   8.65879e-07
       201190   8.65871e-07
       201195   8.65862e-07
       201200   8.65853e-07
       201205   8.65845e-07
       201210   8.65836e-07
       201215   8.65827e-07
       201220   8.65819e-07
       201225    8.6581e-07
       201230   8.65801e-07
       201235   8.65793e-07
       201240   8.65784e-07
       201245   8.65775e-07
       201250   8.65767e-07
       201255   8.65758e-07
       201260   8.65749e-07
       201265   8.65741e-07
       201270   8.65732e-07
       201275   8.65723e-07
       201280   8.65715e-07
       201285   8.65706e-07
       201290   8.65697e-07
       201295   8.65689e-07
       201300    8.6568e-07
       201305   8.65671e-07
       201310   8.65663e-07
       201315   8.65654e-07
       201320   8.65645e-07
       201325   8.65637e-07
       201330   8.65628e-07
       201335   8.65619e-07
       201340   8.65611e-07
       201345   8.65602e-07
       201350   8.65593e-07
       201355   8.65585e-07
       201360   8.65576e-07
       201365   8.65568e-07
       201370   8.65559e-07
       201375    8.6555e-07
       201380   8.65542e-07
       201385   8.65533e-07
       201390   8.65524e-07
       201395   8.65516e-07
       201400   8.65507e-07
       201405   8.65499e-07
       201410    8.6549e-07
       201415   8.65481e-07
       201420   8.65473e-07
       201425   8.65464e-07
       201430   8.65455e-07
       201435   8.65447e-07
       201440   8.65438e-07
       201445    8.6543e-07
       201450   8.65421e-07
       201455   8.65412e-07
       201460   8.65404e-07
       201465   8.65395e-07
       201470   8.65387e-07
       201475   8.65378e-07
       201480   8.65369e-07
       201485   8.65361e-07
       201490   8.65352e-07
       201495   8.65344e-07
       201500   8.65335e-07
       201505   8.65326e-07
       201510   8.65318e-07
       201515   8.65309e-07
       201520   8.65301e-07
       201525   8.65292e-07
       201530   8.65283e-07
       201535   8.65275e-07
       201540   8.65266e-07
       201545   8.65258e-07
       201550   8.65249e-07
       201555    8.6524e-07
       201560   8.65232e-07
       201565   8.65223e-07
       201570   8.65215e-07
       201575   8.65206e-07
       201580   8.65197e-07
       201585   8.65189e-07
       201590    8.6518e-07
       201595   8.65172e-07
       201600   8.65163e-07
       201605   8.65155e-07
       201610   8.65146e-07
       201615   8.65137e-07
       201620   8.65129e-07
       201625    8.6512e-07
       201630   8.65112e-07
       201635   8.65103e-07
       201640   8.65095e-07
       201645   8.65086e-07
       201650   8.65078e-07
       201655   8.65069e-07
       201660    8.6506e-07
       201665   8.65052e-07
       201670   8.65043e-07
       201675   8.65035e-07
       201680   8.65026e-07
       201685   8.65018e-07
       201690   8.65009e-07
       201695   8.65001e-07
       201700   8.64992e-07
       201705   8.64983e-07
       201710   8.64975e-07
       201715   8.64966e-07
       201720   8.64958e-07
       201725   8.64949e-07
       201730   8.64941e-07
       201735   8.64932e-07
       201740   8.64924e-07
       201745   8.64915e-07
       201750   8.64907e-07
       201755   8.64898e-07
       201760   8.64889e-07
       201765   8.64881e-07
       201770   8.64872e-07
       201775   8.64864e-07
       201780   8.64855e-07
       201785   8.64847e-07
       201790   8.64838e-07
       201795    8.6483e-07
       201800   8.64821e-07
       201805   8.64813e-07
       201810   8.64804e-07
       201815   8.64796e-07
       201820   8.64787e-07
       201825   8.64779e-07
       201830    8.6477e-07
       201835   8.64762e-07
       201840   8.64753e-07
       201845   8.64745e-07
       201850   8.64736e-07
       201855   8.64728e-07
       201860   8.64719e-07
       201865   8.64711e-07
       201870   8.64702e-07
       201875   8.64694e-07
       201880   8.64685e-07
       201885   8.64677e-07
       201890   8.64668e-07
       201895    8.6466e-07
       201900   8.64651e-07
       201905   8.64643e-07
       201910   8.64634e-07
       201915   8.64626e-07
       201920   8.64617e-07
       201925   8.64609e-07
       201930     8.646e-07
       201935   8.64592e-07
       201940   8.64583e-07
       201945   8.64575e-07
       201950   8.64566e-07
       201955   8.64558e-07
       201960   8.64549e-07
       201965   8.64541e-07
       201970   8.64532e-07
       201975   8.64524e-07
       201980   8.64515e-07
       201985   8.64507e-07
       201990   8.64498e-07
       201995    8.6449e-07
       202000   8.64481e-07
       202005   8.64473e-07
       202010   8.64464e-07
       202015   8.64456e-07
       202020   8.64448e-07
       202025   8.64439e-07
       202030   8.64431e-07
       202035   8.64422e-07
       202040   8.64414e-07
       202045   8.64405e-07
       202050   8.64397e-07
       202055   8.64388e-07
       202060    8.6438e-07
       202065   8.64371e-07
       202070   8.64363e-07
       202075   8.64354e-07
       202080   8.64346e-07
       202085   8.64338e-07
       202090   8.64329e-07
       202095   8.64321e-07
       202100   8.64312e-07
       202105   8.64304e-07
       202110   8.64295e-07
       202115   8.64287e-07
       202120   8.64278e-07
       202125    8.6427e-07
       202130   8.64262e-07
       202135   8.64253e-07
       202140   8.64245e-07
       202145   8.64236e-07
       202150   8.64228e-07
       202155   8.64219e-07
       202160   8.64211e-07
       202165   8.64203e-07
       202170   8.64194e-07
       202175   8.64186e-07
       202180   8.64177e-07
       202185   8.64169e-07
       202190    8.6416e-07
       202195   8.64152e-07
       202200   8.64144e-07
       202205   8.64135e-07
       202210   8.64127e-07
       202215   8.64118e-07
       202220    8.6411e-07
       202225   8.64101e-07
       202230   8.64093e-07
       202235   8.64085e-07
       202240   8.64076e-07
       202245   8.64068e-07
       202250   8.64059e-07
       202255   8.64051e-07
       202260   8.64043e-07
       202265   8.64034e-07
       202270   8.64026e-07
       202275   8.64017e-07
       202280   8.64009e-07
       202285   8.64001e-07
       202290   8.63992e-07
       202295   8.63984e-07
       202300   8.63975e-07
       202305   8.63967e-07
       202310   8.63959e-07
       202315    8.6395e-07
       202320   8.63942e-07
       202325   8.63933e-07
       202330   8.63925e-07
       202335   8.63917e-07
       202340   8.63908e-07
       202345     8.639e-07
       202350   8.63891e-07
       202355   8.63883e-07
       202360   8.63875e-07
       202365   8.63866e-07
       202370   8.63858e-07
       202375    8.6385e-07
       202380   8.63841e-07
       202385   8.63833e-07
       202390   8.63824e-07
       202395   8.63816e-07
       202400   8.63808e-07
       202405   8.63799e-07
       202410   8.63791e-07
       202415   8.63783e-07
       202420   8.63774e-07
       202425   8.63766e-07
       202430   8.63757e-07
       202435   8.63749e-07
       202440   8.63741e-07
       202445   8.63732e-07
       202450   8.63724e-07
       202455   8.63716e-07
       202460   8.63707e-07
       202465   8.63699e-07
       202470   8.63691e-07
       202475   8.63682e-07
       202480   8.63674e-07
       202485   8.63666e-07
       202490   8.63657e-07
       202495   8.63649e-07
       202500   8.63641e-07
       202505   8.63632e-07
       202510   8.63624e-07
       202515   8.63615e-07
       202520   8.63607e-07
       202525   8.63599e-07
       202530    8.6359e-07
       202535   8.63582e-07
       202540   8.63574e-07
       202545   8.63565e-07
       202550   8.63557e-07
       202555   8.63549e-07
       202560    8.6354e-07
       202565   8.63532e-07
       202570   8.63524e-07
       202575   8.63515e-07
       202580   8.63507e-07
       202585   8.63499e-07
       202590   8.63491e-07
       202595   8.63482e-07
       202600   8.63474e-07
       202605   8.63466e-07
       202610   8.63457e-07
       202615   8.63449e-07
       202620   8.63441e-07
       202625   8.63432e-07
       202630   8.63424e-07
       202635   8.63416e-07
       202640   8.63407e-07
       202645   8.63399e-07
       202650   8.63391e-07
       202655   8.63382e-07
       202660   8.63374e-07
       202665   8.63366e-07
       202670   8.63357e-07
       202675   8.63349e-07
       202680   8.63341e-07
       202685   8.63333e-07
       202690   8.63324e-07
       202695   8.63316e-07
       202700   8.63308e-07
       202705   8.63299e-07
       202710   8.63291e-07
       202715   8.63283e-07
       202720   8.63275e-07
       202725   8.63266e-07
       202730   8.63258e-07
       202735    8.6325e-07
       202740   8.63241e-07
       202745   8.63233e-07
       202750   8.63225e-07
       202755   8.63217e-07
       202760   8.63208e-07
       202765     8.632e-07
       202770   8.63192e-07
       202775   8.63183e-07
       202780   8.63175e-07
       202785   8.63167e-07
       202790   8.63159e-07
       202795    8.6315e-07
       202800   8.63142e-07
       202805   8.63134e-07
       202810   8.63125e-07
       202815   8.63117e-07
       202820   8.63109e-07
       202825   8.63101e-07
       202830   8.63092e-07
       202835   8.63084e-07
       202840   8.63076e-07
       202845   8.63068e-07
       202850   8.63059e-07
       202855   8.63051e-07
       202860   8.63043e-07
       202865   8.63035e-07
       202870   8.63026e-07
       202875   8.63018e-07
       202880    8.6301e-07
       202885   8.63002e-07
       202890   8.62993e-07
       202895   8.62985e-07
       202900   8.62977e-07
       202905   8.62969e-07
       202910    8.6296e-07
       202915   8.62952e-07
       202920   8.62944e-07
       202925   8.62936e-07
       202930   8.62927e-07
       202935   8.62919e-07
       202940   8.62911e-07
       202945   8.62903e-07
       202950   8.62894e-07
       202955   8.62886e-07
       202960   8.62878e-07
       202965    8.6287e-07
       202970   8.62861e-07
       202975   8.62853e-07
       202980   8.62845e-07
       202985   8.62837e-07
       202990   8.62829e-07
       202995    8.6282e-07
       203000   8.62812e-07
       203005   8.62804e-07
       203010   8.62796e-07
       203015   8.62787e-07
       203020   8.62779e-07
       203025   8.62771e-07
       203030   8.62763e-07
       203035   8.62755e-07
       203040   8.62746e-07
       203045   8.62738e-07
       203050    8.6273e-07
       203055   8.62722e-07
       203060   8.62714e-07
       203065   8.62705e-07
       203070   8.62697e-07
       203075   8.62689e-07
       203080   8.62681e-07
       203085   8.62673e-07
       203090   8.62664e-07
       203095   8.62656e-07
       203100   8.62648e-07
       203105    8.6264e-07
       203110   8.62632e-07
       203115   8.62623e-07
       203120   8.62615e-07
       203125   8.62607e-07
       203130   8.62599e-07
       203135   8.62591e-07
       203140   8.62582e-07
       203145   8.62574e-07
       203150   8.62566e-07
       203155   8.62558e-07
       203160    8.6255e-07
       203165   8.62541e-07
       203170   8.62533e-07
       203175   8.62525e-07
       203180   8.62517e-07
       203185   8.62509e-07
       203190   8.62501e-07
       203195   8.62492e-07
       203200   8.62484e-07
       203205   8.62476e-07
       203210   8.62468e-07
       203215    8.6246e-07
       203220   8.62452e-07
       203225   8.62443e-07
       203230   8.62435e-07
       203235   8.62427e-07
       203240   8.62419e-07
       203245   8.62411e-07
       203250   8.62403e-07
       203255   8.62394e-07
       203260   8.62386e-07
       203265   8.62378e-07
       203270    8.6237e-07
       203275   8.62362e-07
       203280   8.62354e-07
       203285   8.62345e-07
       203290   8.62337e-07
       203295   8.62329e-07
       203300   8.62321e-07
       203305   8.62313e-07
       203310   8.62305e-07
       203315   8.62297e-07
       203320   8.62288e-07
       203325    8.6228e-07
       203330   8.62272e-07
       203335   8.62264e-07
       203340   8.62256e-07
       203345   8.62248e-07
       203350    8.6224e-07
       203355   8.62231e-07
       203360   8.62223e-07
       203365   8.62215e-07
       203370   8.62207e-07
       203375   8.62199e-07
       203380   8.62191e-07
       203385   8.62183e-07
       203390   8.62174e-07
       203395   8.62166e-07
       203400   8.62158e-07
       203405    8.6215e-07
       203410   8.62142e-07
       203415   8.62134e-07
       203420   8.62126e-07
       203425   8.62118e-07
       203430   8.62109e-07
       203435   8.62101e-07
       203440   8.62093e-07
       203445   8.62085e-07
       203450   8.62077e-07
       203455   8.62069e-07
       203460   8.62061e-07
       203465   8.62053e-07
       203470   8.62045e-07
       203475   8.62036e-07
       203480   8.62028e-07
       203485    8.6202e-07
       203490   8.62012e-07
       203495   8.62004e-07
       203500   8.61996e-07
       203505   8.61988e-07
       203510    8.6198e-07
       203515   8.61972e-07
       203520   8.61964e-07
       203525   8.61955e-07
       203530   8.61947e-07
       203535   8.61939e-07
       203540   8.61931e-07
       203545   8.61923e-07
       203550   8.61915e-07
       203555   8.61907e-07
       203560   8.61899e-07
       203565   8.61891e-07
       203570   8.61883e-07
       203575   8.61875e-07
       203580   8.61866e-07
       203585   8.61858e-07
       203590    8.6185e-07
       203595   8.61842e-07
       203600   8.61834e-07
       203605   8.61826e-07
       203610   8.61818e-07
       203615    8.6181e-07
       203620   8.61802e-07
       203625   8.61794e-07
       203630   8.61786e-07
       203635   8.61778e-07
       203640    8.6177e-07
       203645   8.61762e-07
       203650   8.61753e-07
       203655   8.61745e-07
       203660   8.61737e-07
       203665   8.61729e-07
       203670   8.61721e-07
       203675   8.61713e-07
       203680   8.61705e-07
       203685   8.61697e-07
       203690   8.61689e-07
       203695   8.61681e-07
       203700   8.61673e-07
       203705   8.61665e-07
       203710   8.61657e-07
       203715   8.61649e-07
       203720   8.61641e-07
       203725   8.61633e-07
       203730   8.61625e-07
       203735   8.61617e-07
       203740   8.61608e-07
       203745     8.616e-07
       203750   8.61592e-07
       203755   8.61584e-07
       203760   8.61576e-07
       203765   8.61568e-07
       203770    8.6156e-07
       203775   8.61552e-07
       203780   8.61544e-07
       203785   8.61536e-07
       203790   8.61528e-07
       203795    8.6152e-07
       203800   8.61512e-07
       203805   8.61504e-07
       203810   8.61496e-07
       203815   8.61488e-07
       203820    8.6148e-07
       203825   8.61472e-07
       203830   8.61464e-07
       203835   8.61456e-07
       203840   8.61448e-07
       203845    8.6144e-07
       203850   8.61432e-07
       203855   8.61424e-07
       203860   8.61416e-07
       203865   8.61408e-07
       203870     8.614e-07
       203875   8.61392e-07
       203880   8.61384e-07
       203885   8.61376e-07
       203890   8.61368e-07
       203895    8.6136e-07
       203900   8.61352e-07
       203905   8.61344e-07
       203910   8.61336e-07
       203915   8.61328e-07
       203920    8.6132e-07
       203925   8.61312e-07
       203930   8.61304e-07
       203935   8.61296e-07
       203940   8.61288e-07
       203945    8.6128e-07
       203950   8.61272e-07
       203955   8.61264e-07
       203960   8.61256e-07
       203965   8.61248e-07
       203970    8.6124e-07
       203975   8.61232e-07
       203980   8.61224e-07
       203985   8.61216e-07
       203990   8.61208e-07
       203995     8.612e-07
       204000   8.61192e-07
       204005   8.61184e-07
       204010   8.61176e-07
       204015   8.61168e-07
       204020    8.6116e-07
       204025   8.61152e-07
       204030   8.61144e-07
       204035   8.61136e-07
       204040   8.61128e-07
       204045    8.6112e-07
       204050   8.61112e-07
       204055   8.61104e-07
       204060   8.61096e-07
       204065   8.61088e-07
       204070    8.6108e-07
       204075   8.61072e-07
       204080   8.61064e-07
       204085   8.61056e-07
       204090   8.61048e-07
       204095    8.6104e-07
       204100   8.61032e-07
       204105   8.61024e-07
       204110   8.61016e-07
       204115   8.61009e-07
       204120   8.61001e-07
       204125   8.60993e-07
       204130   8.60985e-07
       204135   8.60977e-07
       204140   8.60969e-07
       204145   8.60961e-07
       204150   8.60953e-07
       204155   8.60945e-07
       204160   8.60937e-07
       204165   8.60929e-07
       204170   8.60921e-07
       204175   8.60913e-07
       204180   8.60905e-07
       204185   8.60897e-07
       204190   8.60889e-07
       204195   8.60881e-07
       204200   8.60873e-07
       204205   8.60866e-07
       204210   8.60858e-07
       204215    8.6085e-07
       204220   8.60842e-07
       204225   8.60834e-07
       204230   8.60826e-07
       204235   8.60818e-07
       204240    8.6081e-07
       204245   8.60802e-07
       204250   8.60794e-07
       204255   8.60786e-07
       204260   8.60778e-07
       204265    8.6077e-07
       204270   8.60762e-07
       204275   8.60755e-07
       204280   8.60747e-07
       204285   8.60739e-07
       204290   8.60731e-07
       204295   8.60723e-07
       204300   8.60715e-07
       204305   8.60707e-07
       204310   8.60699e-07
       204315   8.60691e-07
       204320   8.60683e-07
       204325   8.60675e-07
       204330   8.60668e-07
       204335    8.6066e-07
       204340   8.60652e-07
       204345   8.60644e-07
       204350   8.60636e-07
       204355   8.60628e-07
       204360    8.6062e-07
       204365   8.60612e-07
       204370   8.60604e-07
       204375   8.60596e-07
       204380   8.60589e-07
       204385   8.60581e-07
       204390   8.60573e-07
       204395   8.60565e-07
       204400   8.60557e-07
       204405   8.60549e-07
       204410   8.60541e-07
       204415   8.60533e-07
       204420   8.60525e-07
       204425   8.60518e-07
       204430    8.6051e-07
       204435   8.60502e-07
       204440   8.60494e-07
       204445   8.60486e-07
       204450   8.60478e-07
       204455    8.6047e-07
       204460   8.60462e-07
       204465   8.60455e-07
       204470   8.60447e-07
       204475   8.60439e-07
       204480   8.60431e-07
       204485   8.60423e-07
       204490   8.60415e-07
       204495   8.60407e-07
       204500   8.60399e-07
       204505   8.60392e-07
       204510   8.60384e-07
       204515   8.60376e-07
       204520   8.60368e-07
       204525    8.6036e-07
       204530   8.60352e-07
       204535   8.60344e-07
       204540   8.60337e-07
       204545   8.60329e-07
       204550   8.60321e-07
       204555   8.60313e-07
       204560   8.60305e-07
       204565   8.60297e-07
       204570   8.60289e-07
       204575   8.60282e-07
       204580   8.60274e-07
       204585   8.60266e-07
       204590   8.60258e-07
       204595    8.6025e-07
       204600   8.60242e-07
       204605   8.60235e-07
       204610   8.60227e-07
       204615   8.60219e-07
       204620   8.60211e-07
       204625   8.60203e-07
       204630   8.60195e-07
       204635   8.60188e-07
       204640    8.6018e-07
       204645   8.60172e-07
       204650   8.60164e-07
       204655   8.60156e-07
       204660   8.60148e-07
       204665   8.60141e-07
       204670   8.60133e-07
       204675   8.60125e-07
       204680   8.60117e-07
       204685   8.60109e-07
       204690   8.60101e-07
       204695   8.60094e-07
       204700   8.60086e-07
       204705   8.60078e-07
       204710    8.6007e-07
       204715   8.60062e-07
       204720   8.60054e-07
       204725   8.60047e-07
       204730   8.60039e-07
       204735   8.60031e-07
       204740   8.60023e-07
       204745   8.60015e-07
       204750   8.60008e-07
       204755       8.6e-07
       204760   8.59992e-07
       204765   8.59984e-07
       204770   8.59976e-07
       204775   8.59969e-07
       204780   8.59961e-07
       204785   8.59953e-07
       204790   8.59945e-07
       204795   8.59937e-07
       204800    8.5993e-07
       204805   8.59922e-07
       204810   8.59914e-07
       204815   8.59906e-07
       204820   8.59898e-07
       204825   8.59891e-07
       204830   8.59883e-07
       204835   8.59875e-07
       204840   8.59867e-07
       204845   8.59859e-07
       204850   8.59852e-07
       204855   8.59844e-07
       204860   8.59836e-07
       204865   8.59828e-07
       204870   8.59821e-07
       204875   8.59813e-07
       204880   8.59805e-07
       204885   8.59797e-07
       204890   8.59789e-07
       204895   8.59782e-07
       204900   8.59774e-07
       204905   8.59766e-07
       204910   8.59758e-07
       204915   8.59751e-07
       204920   8.59743e-07
       204925   8.59735e-07
       204930   8.59727e-07
       204935    8.5972e-07
       204940   8.59712e-07
       204945   8.59704e-07
       204950   8.59696e-07
       204955   8.59688e-07
       204960   8.59681e-07
       204965   8.59673e-07
       204970   8.59665e-07
       204975   8.59657e-07
       204980    8.5965e-07
       204985   8.59642e-07
       204990   8.59634e-07
       204995   8.59626e-07
       205000   8.59619e-07
       205005   8.59611e-07
       205010   8.59603e-07
       205015   8.59595e-07
       205020   8.59588e-07
       205025    8.5958e-07
       205030   8.59572e-07
       205035   8.59564e-07
       205040   8.59557e-07
       205045   8.59549e-07
       205050   8.59541e-07
       205055   8.59533e-07
       205060   8.59526e-07
       205065   8.59518e-07
       205070    8.5951e-07
       205075   8.59503e-07
       205080   8.59495e-07
       205085   8.59487e-07
       205090   8.59479e-07
       205095   8.59472e-07
       205100   8.59464e-07
       205105   8.59456e-07
       205110   8.59448e-07
       205115   8.59441e-07
       205120   8.59433e-07
       205125   8.59425e-07
       205130   8.59418e-07
       205135    8.5941e-07
       205140   8.59402e-07
       205145   8.59394e-07
       205150   8.59387e-07
       205155   8.59379e-07
       205160   8.59371e-07
       205165   8.59364e-07
       205170   8.59356e-07
       205175   8.59348e-07
       205180    8.5934e-07
       205185   8.59333e-07
       205190   8.59325e-07
       205195   8.59317e-07
       205200    8.5931e-07
       205205   8.59302e-07
       205210   8.59294e-07
       205215   8.59286e-07
       205220   8.59279e-07
       205225   8.59271e-07
       205230   8.59263e-07
       205235   8.59256e-07
       205240   8.59248e-07
       205245    8.5924e-07
       205250   8.59233e-07
       205255   8.59225e-07
       205260   8.59217e-07
       205265   8.59209e-07
       205270   8.59202e-07
       205275   8.59194e-07
       205280   8.59186e-07
       205285   8.59179e-07
       205290   8.59171e-07
       205295   8.59163e-07
       205300   8.59156e-07
       205305   8.59148e-07
       205310    8.5914e-07
       205315   8.59133e-07
       205320   8.59125e-07
       205325   8.59117e-07
       205330    8.5911e-07
       205335   8.59102e-07
       205340   8.59094e-07