# Probe 0 (0.05 0.05 0.005)
#       Probe             0
#        Time
       200005     0.0392906
       200010     0.0392906
       200015     0.0392906
       200020     0.0392906
       200025     0.0392906
       200030     0.0392906
       200035     0.0392906
       200040     0.0392906
       200045     0.0392906
       200050     0.0392907
       200055     0.0392907
       200060     0.0392907
       200065     0.0392907
       200070     0.0392907
       200075     0.0392907
       200080     0.0392907
       200085     0.0392907
       200090     0.0392907
       200095     0.0392907
       200100     0.0392907
       200105     0.0392908
       200110     0.0392908
       200115     0.0392908
       200120     0.0392908
       200125     0.0392908
       200130     0.0392908
       200135     0.0392908
       200140     0.0392908
       200145     0.0392908
       200150     0.0392908
       200155     0.0392909
       200160     0.0392909
       200165     0.0392909
       200170     0.0392909
       200175     0.0392909
       200180     0.0392909
       200185     0.0392909
       200190     0.0392909
       200195     0.0392909
       200200     0.0392909
       200205     0.0392909
       200210      0.039291
       200215      0.039291
       200220      0.039291
       200225      0.039291
       200230      0.039291
       200235      0.039291
       200240      0.039291
       200245      0.039291
       200250      0.039291
       200255      0.039291
       200260     0.0392911
       200265     0.0392911
       200270     0.0392911
       200275     0.0392911
       200280     0.0392911
       200285     0.0392911
       200290     0.0392911
       200295     0.0392911
       200300     0.0392911
       200305     0.0392911
       200310     0.0392911
       200315     0.0392912
       200320     0.0392912
       200325     0.0392912
       200330     0.0392912
       200335     0.0392912
       200340     0.0392912
       200345     0.0392912
       200350     0.0392912
       200355     0.0392912
       200360     0.0392912
       200365     0.0392913
       200370     0.0392913
       200375     0.0392913
       200380     0.0392913
       200385     0.0392913
       200390     0.0392913
       200395     0.0392913
       200400     0.0392913
       200405     0.0392913
       200410     0.0392913
       200415     0.0392913
       200420     0.0392914
       200425     0.0392914
       200430     0.0392914
       200435     0.0392914
       200440     0.0392914
       200445     0.0392914
       200450     0.0392914
       200455     0.0392914
       200460     0.0392914
       200465     0.0392914
       200470     0.0392915
       200475     0.0392915
       200480     0.0392915
       200485     0.0392915
       200490     0.0392915
       200495     0.0392915
       200500     0.0392915
       200505     0.0392915
       200510     0.0392915
       200515     0.0392915
       200520     0.0392915
       200525     0.0392916
       200530     0.0392916
       200535     0.0392916
       200540     0.0392916
       200545     0.0392916
       200550     0.0392916
       200555     0.0392916
       200560     0.0392916
       200565     0.0392916
       200570     0.0392916
       200575     0.0392917
       200580     0.0392917
       200585     0.0392917
       200590     0.0392917
       200595     0.0392917
       200600     0.0392917
       200605     0.0392917
       200610     0.0392917
       200615     0.0392917
       200620     0.0392917
       200625     0.0392917
       200630     0.0392918
       200635     0.0392918
       200640     0.0392918
       200645     0.0392918
       200650     0.0392918
       200655     0.0392918
       200660     0.0392918
       200665     0.0392918
       200670     0.0392918
       200675     0.0392918
       200680     0.0392918
       200685     0.0392919
       200690     0.0392919
       200695     0.0392919
       200700     0.0392919
       200705     0.0392919
       200710     0.0392919
       200715     0.0392919
       200720     0.0392919
       200725     0.0392919
       200730     0.0392919
       200735      0.039292
       200740      0.039292
       200745      0.039292
       200750      0.039292
       200755      0.039292
       200760      0.039292
       200765      0.039292
       200770      0.039292
       200775      0.039292
       200780      0.039292
       200785      0.039292
       200790     0.0392921
       200795     0.0392921
       200800     0.0392921
       200805     0.0392921
       200810     0.0392921
       200815     0.0392921
       200820     0.0392921
       200825     0.0392921
       200830     0.0392921
       200835     0.0392921
       200840     0.0392921
       200845     0.0392922
       200850     0.0392922
       200855     0.0392922
       200860     0.0392922
       200865     0.0392922
       200870     0.0392922
       200875     0.0392922
       200880     0.0392922
       200885     0.0392922
       200890     0.0392922
       200895     0.0392923
       200900     0.0392923
       200905     0.0392923
       200910     0.0392923
       200915     0.0392923
       200920     0.0392923
       200925     0.0392923
       200930     0.0392923
       200935     0.0392923
       200940     0.0392923
       200945     0.0392923
       200950     0.0392924
       200955     0.0392924
       200960     0.0392924
       200965     0.0392924
       200970     0.0392924
       200975     0.0392924
       200980     0.0392924
       200985     0.0392924
       200990     0.0392924
       200995     0.0392924
       201000     0.0392924
       201005     0.0392925
       201010     0.0392925
       201015     0.0392925
       201020     0.0392925
       201025     0.0392925
       201030     0.0392925
       201035     0.0392925
       201040     0.0392925
       201045     0.0392925
       201050     0.0392925
       201055     0.0392926
       201060     0.0392926
       201065     0.0392926
       201070     0.0392926
       201075     0.0392926
       201080     0.0392926
       201085     0.0392926
       201090     0.0392926
       201095     0.0392926
       201100     0.0392926
       201105     0.0392926
       201110     0.0392927
       201115     0.0392927
       201120     0.0392927
       201125     0.0392927
       201130     0.0392927
       201135     0.0392927
       201140     0.0392927
       201145     0.0392927
       201150     0.0392927
       201155     0.0392927
       201160     0.0392927
       201165     0.0392928
       201170     0.0392928
       201175     0.0392928
       201180     0.0392928
       201185     0.0392928
       201190     0.0392928
       201195     0.0392928
       201200     0.0392928
       201205     0.0392928
       201210     0.0392928
       201215     0.0392928
       201220     0.0392929
       201225     0.0392929
       201230     0.0392929
       201235     0.0392929
       201240     0.0392929
       201245     0.0392929
       201250     0.0392929
       201255     0.0392929
       201260     0.0392929
       201265     0.0392929
       201270     0.0392929
       201275      0.039293
       201280      0.039293
       201285      0.039293
       201290      0.039293
       201295      0.039293
       201300      0.039293
       201305      0.039293
       201310      0.039293
       201315      0.039293
       201320      0.039293
       201325     0.0392931
       201330     0.0392931
       201335     0.0392931
       201340     0.0392931
       201345     0.0392931
       201350     0.0392931
       201355     0.0392931
       201360     0.0392931
       201365     0.0392931
       201370     0.0392931
       201375     0.0392931
       201380     0.0392932
       201385     0.0392932
       201390     0.0392932
       201395     0.0392932
       201400     0.0392932
       201405     0.0392932
       201410     0.0392932
       201415     0.0392932
       201420     0.0392932
       201425     0.0392932
       201430     0.0392932
       201435     0.0392933
       201440     0.0392933
       201445     0.0392933
       201450     0.0392933
       201455     0.0392933
       201460     0.0392933
       201465     0.0392933
       201470     0.0392933
       201475     0.0392933
       201480     0.0392933
       201485     0.0392933
       201490     0.0392934
       201495     0.0392934
       201500     0.0392934
       201505     0.0392934
       201510     0.0392934
       201515     0.0392934
       201520     0.0392934
       201525     0.0392934
       201530     0.0392934
       201535     0.0392934
       201540     0.0392934
       201545     0.0392935
       201550     0.0392935
       201555     0.0392935
       201560     0.0392935
       201565     0.0392935
       201570     0.0392935
       201575     0.0392935
       201580     0.0392935
       201585     0.0392935
       201590     0.0392935
       201595     0.0392935
       201600     0.0392936
       201605     0.0392936
       201610     0.0392936
       201615     0.0392936
       201620     0.0392936
       201625     0.0392936
       201630     0.0392936
       201635     0.0392936
       201640     0.0392936
       201645     0.0392936
       201650     0.0392936
       201655     0.0392937
       201660     0.0392937
       201665     0.0392937
       201670     0.0392937
       201675     0.0392937
       201680     0.0392937
       201685     0.0392937
       201690     0.0392937
       201695     0.0392937
       201700     0.0392937
       201705     0.0392937
       201710     0.0392938
       201715     0.0392938
       201720     0.0392938
       201725     0.0392938
       201730     0.0392938
       201735     0.0392938
       201740     0.0392938
       201745     0.0392938
       201750     0.0392938
       201755     0.0392938
       201760     0.0392938
       201765     0.0392939
       201770     0.0392939
       201775     0.0392939
       201780     0.0392939
       201785     0.0392939
       201790     0.0392939
       201795     0.0392939
       201800     0.0392939
       201805     0.0392939
       201810     0.0392939
       201815     0.0392939
       201820      0.039294
       201825      0.039294
       201830      0.039294
       201835      0.039294
       201840      0.039294
       201845      0.039294
       201850      0.039294
       201855      0.039294
       201860      0.039294
       201865      0.039294
       201870      0.039294
       201875     0.0392941
       201880     0.0392941
       201885     0.0392941
       201890     0.0392941
       201895     0.0392941
       201900     0.0392941
       201905     0.0392941
       201910     0.0392941
       201915     0.0392941
       201920     0.0392941
       201925     0.0392941
       201930     0.0392942
       201935     0.0392942
       201940     0.0392942
       201945     0.0392942
       201950     0.0392942
       201955     0.0392942
       201960     0.0392942
       201965     0.0392942
       201970     0.0392942
       201975     0.0392942
       201980     0.0392942
       201985     0.0392943
       201990     0.0392943
       201995     0.0392943
       202000     0.0392943
       202005     0.0392943
       202010     0.0392943
       202015     0.0392943
       202020     0.0392943
       202025     0.0392943
       202030     0.0392943
       202035     0.0392943
       202040     0.0392944
       202045     0.0392944
       202050     0.0392944
       202055     0.0392944
       202060     0.0392944
       202065     0.0392944
       202070     0.0392944
       202075     0.0392944
       202080     0.0392944
       202085     0.0392944
       202090     0.0392944
       202095     0.0392945
       202100     0.0392945
       202105     0.0392945
       202110     0.0392945
       202115     0.0392945
       202120     0.0392945
       202125     0.0392945
       202130     0.0392945
       202135     0.0392945
       202140     0.0392945
       202145     0.0392945
       202150     0.0392946
       202155     0.0392946
       202160     0.0392946
       202165     0.0392946
       202170     0.0392946
       202175     0.0392946
       202180     0.0392946
       202185     0.0392946
       202190     0.0392946
       202195     0.0392946
       202200     0.0392946
       202205     0.0392947
       202210     0.0392947
       202215     0.0392947
       202220     0.0392947
       202225     0.0392947
       202230     0.0392947
       202235     0.0392947
       202240     0.0392947
       202245     0.0392947
       202250     0.0392947
       202255     0.0392947
       202260     0.0392948
       202265     0.0392948
       202270     0.0392948
       202275     0.0392948
       202280     0.0392948
       202285     0.0392948
       202290     0.0392948
       202295     0.0392948
       202300     0.0392948
       202305     0.0392948
       202310     0.0392948
       202315     0.0392949
       202320     0.0392949
       202325     0.0392949
       202330     0.0392949
       202335     0.0392949
       202340     0.0392949
       202345     0.0392949
       202350     0.0392949
       202355     0.0392949
       202360     0.0392949
       202365     0.0392949
       202370     0.0392949
       202375      0.039295
       202380      0.039295
       202385      0.039295
       202390      0.039295
       202395      0.039295
       202400      0.039295
       202405      0.039295
       202410      0.039295
       202415      0.039295
       202420      0.039295
       202425      0.039295
       202430     0.0392951
       202435     0.0392951
       202440     0.0392951
       202445     0.0392951
       202450     0.0392951
       202455     0.0392951
       202460     0.0392951
       202465     0.0392951
       202470     0.0392951
       202475     0.0392951
       202480     0.0392951
       202485     0.0392952
       202490     0.0392952
       202495     0.0392952
       202500     0.0392952
       202505     0.0392952
       202510     0.0392952
       202515     0.0392952
       202520     0.0392952
       202525     0.0392952
       202530     0.0392952
       202535     0.0392952
       202540     0.0392953
       202545     0.0392953
       202550     0.0392953
       202555     0.0392953
       202560     0.0392953
       202565     0.0392953
       202570     0.0392953
       202575     0.0392953
       202580     0.0392953
       202585     0.0392953
       202590     0.0392953
       202595     0.0392954
       202600     0.0392954
       202605     0.0392954
       202610     0.0392954
       202615     0.0392954
       202620     0.0392954
       202625     0.0392954
       202630     0.0392954
       202635     0.0392954
       202640     0.0392954
       202645     0.0392954
       202650     0.0392954
       202655     0.0392955
       202660     0.0392955
       202665     0.0392955
       202670     0.0392955
       202675     0.0392955
       202680     0.0392955
       202685     0.0392955
       202690     0.0392955
       202695     0.0392955
       202700     0.0392955
       202705     0.0392955
       202710     0.0392956
       202715     0.0392956
       202720     0.0392956
       202725     0.0392956
       202730     0.0392956
       202735     0.0392956
       202740     0.0392956
       202745     0.0392956
       202750     0.0392956
       202755     0.0392956
       202760     0.0392956
       202765     0.0392957
       202770     0.0392957
       202775     0.0392957
       202780     0.0392957
       202785     0.0392957
       202790     0.0392957
       202795     0.0392957
       202800     0.0392957
       202805     0.0392957
       202810     0.0392957
       202815     0.0392957
       202820     0.0392957
       202825     0.0392958
       202830     0.0392958
       202835     0.0392958
       202840     0.0392958
       202845     0.0392958
       202850     0.0392958
       202855     0.0392958
       202860     0.0392958
       202865     0.0392958
       202870     0.0392958
       202875     0.0392958
       202880     0.0392959
       202885     0.0392959
       202890     0.0392959
       202895     0.0392959
       202900     0.0392959
       202905     0.0392959
       202910     0.0392959
       202915     0.0392959
       202920     0.0392959
       202925     0.0392959
       202930     0.0392959
       202935      0.039296
       202940      0.039296
       202945      0.039296
       202950      0.039296
       202955      0.039296
       202960      0.039296
       202965      0.039296
       202970      0.039296
       202975      0.039296
       202980      0.039296
       202985      0.039296
       202990      0.039296
       202995     0.0392961
       203000     0.0392961
       203005     0.0392961
       203010     0.0392961
       203015     0.0392961
       203020     0.0392961
       203025     0.0392961
       203030     0.0392961
       203035     0.0392961
       203040     0.0392961
       203045     0.0392961
       203050     0.0392962
       203055     0.0392962
       203060     0.0392962
       203065     0.0392962
       203070     0.0392962
       203075     0.0392962
       203080     0.0392962
       203085     0.0392962
       203090     0.0392962
       203095     0.0392962
       203100     0.0392962
       203105     0.0392962
       203110     0.0392963
       203115     0.0392963
       203120     0.0392963
       203125     0.0392963
       203130     0.0392963
       203135     0.0392963
       203140     0.0392963
       203145     0.0392963
       203150     0.0392963
       203155     0.0392963
       203160     0.0392963
       203165     0.0392964
       203170     0.0392964
       203175     0.0392964
       203180     0.0392964
       203185     0.0392964
       203190     0.0392964
       203195     0.0392964
       203200     0.0392964
       203205     0.0392964
       203210     0.0392964
       203215     0.0392964
       203220     0.0392964
       203225     0.0392965
       203230     0.0392965
       203235     0.0392965
       203240     0.0392965
       203245     0.0392965
       203250     0.0392965
       203255     0.0392965
       203260     0.0392965
       203265     0.0392965
       203270     0.0392965
       203275     0.0392965
       203280     0.0392966
       203285     0.0392966
       203290     0.0392966
       203295     0.0392966
       203300     0.0392966
       203305     0.0392966
       203310     0.0392966
       203315     0.0392966
       203320     0.0392966
       203325     0.0392966
       203330     0.0392966
       203335     0.0392966
       203340     0.0392967
       203345     0.0392967
       203350     0.0392967
       203355     0.0392967
       203360     0.0392967
       203365     0.0392967
       203370     0.0392967
       203375     0.0392967
       203380     0.0392967
       203385     0.0392967
       203390     0.0392967
       203395     0.0392968
       203400     0.0392968
       203405     0.0392968
       203410     0.0392968
       203415     0.0392968
       203420     0.0392968
       203425     0.0392968
       203430     0.0392968
       203435     0.0392968
       203440     0.0392968
       203445     0.0392968
       203450     0.0392968
       203455     0.0392969
       203460     0.0392969
       203465     0.0392969
       203470     0.0392969
       203475     0.0392969
       203480     0.0392969
       203485     0.0392969
       203490     0.0392969
       203495     0.0392969
       203500     0.0392969
       203505     0.0392969
       203510      0.039297
       203515      0.039297
       203520      0.039297
       203525      0.039297
       203530      0.039297
       203535      0.039297
       203540      0.039297
       203545      0.039297
       203550      0.039297
       203555      0.039297
       203560      0.039297
       203565      0.039297
       203570     0.0392971
       203575     0.0392971
       203580     0.0392971
       203585     0.0392971
       203590     0.0392971
       203595     0.0392971
       203600     0.0392971
       203605     0.0392971
       203610     0.0392971
       203615     0.0392971
       203620     0.0392971
       203625     0.0392972
       203630     0.0392972
       203635     0.0392972
       203640     0.0392972
       203645     0.0392972
       203650     0.0392972
       203655     0.0392972
       203660     0.0392972
       203665     0.0392972
       203670     0.0392972
       203675     0.0392972
       203680     0.0392972
       203685     0.0392973
       203690     0.0392973
       203695     0.0392973
       203700     0.0392973
       203705     0.0392973
       203710     0.0392973
       203715     0.0392973
       203720     0.0392973
       203725     0.0392973
       203730     0.0392973
       203735     0.0392973
       203740     0.0392973
       203745     0.0392974
       203750     0.0392974
       203755     0.0392974
       203760     0.0392974
       203765     0.0392974
       203770     0.0392974
       203775     0.0392974
       203780     0.0392974
       203785     0.0392974
       203790     0.0392974
       203795     0.0392974
       203800     0.0392975
       203805     0.0392975
       203810     0.0392975
       203815     0.0392975
       203820     0.0392975
       203825     0.0392975
       203830     0.0392975
       203835     0.0392975
       203840     0.0392975
       203845     0.0392975
       203850     0.0392975
       203855     0.0392975
       203860     0.0392976
       203865     0.0392976
       203870     0.0392976
       203875     0.0392976
       203880     0.0392976
       203885     0.0392976
       203890     0.0392976
       203895     0.0392976
       203900     0.0392976
       203905     0.0392976
       203910     0.0392976
       203915     0.0392976
       203920     0.0392977
       203925     0.0392977
       203930     0.0392977
       203935     0.0392977
       203940     0.0392977
       203945     0.0392977
       203950     0.0392977
       203955     0.0392977
       203960     0.0392977
       203965     0.0392977
       203970     0.0392977
       203975     0.0392977
       203980     0.0392978
       203985     0.0392978
       203990     0.0392978
       203995     0.0392978
       204000     0.0392978
       204005     0.0392978
       204010     0.0392978
       204015     0.0392978
       204020     0.0392978
       204025     0.0392978
       204030     0.0392978
       204035     0.0392979
       204040     0.0392979
       204045     0.0392979
       204050     0.0392979
       204055     0.0392979
       204060     0.0392979
       204065     0.0392979
       204070     0.0392979
       204075     0.0392979
       204080     0.0392979
       204085     0.0392979
       204090     0.0392979
       204095      0.039298
       204100      0.039298
       204105      0.039298
       204110      0.039298
       204115      0.039298
       204120      0.039298
       204125      0.039298
       204130      0.039298
       204135      0.039298
       204140      0.039298
       204145      0.039298
       204150      0.039298
       204155     0.0392981
       204160     0.0392981
       204165     0.0392981
       204170     0.0392981
       204175     0.0392981
       204180     0.0392981
       204185     0.0392981
       204190     0.0392981
       204195     0.0392981
       204200     0.0392981
       204205     0.0392981
       204210     0.0392981
       204215     0.0392982
       204220     0.0392982
       204225     0.0392982
       204230     0.0392982
       204235     0.0392982
       204240     0.0392982
       204245     0.0392982
       204250     0.0392982
       204255     0.0392982
       204260     0.0392982
       204265     0.0392982
       204270     0.0392982
       204275     0.0392983
       204280     0.0392983
       204285     0.0392983
       204290     0.0392983
       204295     0.0392983
       204300     0.0392983
       204305     0.0392983
       204310     0.0392983
       204315     0.0392983
       204320     0.0392983
       204325     0.0392983
       204330     0.0392983
       204335     0.0392984
       204340     0.0392984
       204345     0.0392984
       204350     0.0392984
       204355     0.0392984
       204360     0.0392984
       204365     0.0392984
       204370     0.0392984
       204375     0.0392984
       204380     0.0392984
       204385     0.0392984
       204390     0.0392985
       204395     0.0392985
       204400     0.0392985
       204405     0.0392985
       204410     0.0392985
       204415     0.0392985
       204420     0.0392985
       204425     0.0392985
       204430     0.0392985
       204435     0.0392985
       204440     0.0392985
       204445     0.0392985
       204450     0.0392986
       204455     0.0392986
       204460     0.0392986
       204465     0.0392986
       204470     0.0392986
       204475     0.0392986
       204480     0.0392986
       204485     0.0392986
       204490     0.0392986
       204495     0.0392986
       204500     0.0392986
       204505     0.0392986
       204510     0.0392987
       204515     0.0392987
       204520     0.0392987
       204525     0.0392987
       204530     0.0392987
       204535     0.0392987
       204540     0.0392987
       204545     0.0392987
       204550     0.0392987
       204555     0.0392987
       204560     0.0392987
       204565     0.0392987
       204570     0.0392988
       204575     0.0392988
       204580     0.0392988
       204585     0.0392988
       204590     0.0392988
       204595     0.0392988
       204600     0.0392988
       204605     0.0392988
       204610     0.0392988
       204615     0.0392988
       204620     0.0392988
       204625     0.0392988
       204630     0.0392989
       204635     0.0392989
       204640     0.0392989
       204645     0.0392989
       204650     0.0392989
       204655     0.0392989
       204660     0.0392989
       204665     0.0392989
       204670     0.0392989
       204675     0.0392989
       204680     0.0392989
       204685     0.0392989
       204690      0.039299
       204695      0.039299
       204700      0.039299
       204705      0.039299
       204710      0.039299
       204715      0.039299
       204720      0.039299
       204725      0.039299
       204730      0.039299
       204735      0.039299
       204740      0.039299
       204745      0.039299
       204750     0.0392991
       204755     0.0392991
       204760     0.0392991
       204765     0.0392991
       204770     0.0392991
       204775     0.0392991
       204780     0.0392991
       204785     0.0392991
       204790     0.0392991
       204795     0.0392991
       204800     0.0392991
       204805     0.0392991
       204810     0.0392992
       204815     0.0392992
       204820     0.0392992
       204825     0.0392992
       204830     0.0392992
       204835     0.0392992
       204840     0.0392992
       204845     0.0392992
       204850     0.0392992
       204855     0.0392992
       204860     0.0392992
       204865     0.0392992
       204870     0.0392993
       204875     0.0392993
       204880     0.0392993
       204885     0.0392993
       204890     0.0392993
       204895     0.0392993
       204900     0.0392993
       204905     0.0392993
       204910     0.0392993
       204915     0.0392993
       204920     0.0392993
       204925     0.0392993
       204930     0.0392994
       204935     0.0392994
       204940     0.0392994
       204945     0.0392994
       204950     0.0392994
       204955     0.0392994
       204960     0.0392994
       204965     0.0392994
       204970     0.0392994
       204975     0.0392994
       204980     0.0392994
       204985     0.0392994
       204990     0.0392994
       204995     0.0392995
       205000     0.0392995
       205005     0.0392995
       205010     0.0392995
       205015     0.0392995
       205020     0.0392995
       205025     0.0392995
       205030     0.0392995
       205035     0.0392995
       205040     0.0392995
       205045     0.0392995
       205050     0.0392995
       205055     0.0392996
       205060     0.0392996
       205065     0.0392996
       205070     0.0392996
       205075     0.0392996
       205080     0.0392996
       205085     0.0392996
       205090     0.0392996
       205095     0.0392996
       205100     0.0392996
       205105     0.0392996
       205110     0.0392996
       205115     0.0392997
       205120     0.0392997
       205125     0.0392997
       205130     0.0392997
       205135     0.0392997
       205140     0.0392997
       205145     0.0392997
       205150     0.0392997
       205155     0.0392997
       205160     0.0392997
       205165     0.0392997
       205170     0.0392997
       205175     0.0392998
       205180     0.0392998
       205185     0.0392998
       205190     0.0392998
       205195     0.0392998
       205200     0.0392998
       205205     0.0392998
       205210     0.0392998
       205215     0.0392998
       205220     0.0392998
       205225     0.0392998
       205230     0.0392998
       205235     0.0392999
       205240     0.0392999
       205245     0.0392999
       205250     0.0392999
       205255     0.0392999
       205260     0.0392999
       205265     0.0392999
       205270     0.0392999
       205275     0.0392999
       205280     0.0392999
       205285     0.0392999
       205290     0.0392999
       205295        0.0393
       205300        0.0393
       205305        0.0393
       205310        0.0393
       205315        0.0393
       205320        0.0393
       205325        0.0393
       205330        0.0393
       205335        0.0393
       205340        0.0393