# Probe 0 (0.05 0.05 0.005)
#       Probe             0
#        Time
       200005   0.000709404
       200010   0.000709394
       200015   0.000709385
       200020   0.000709375
       200025   0.000709365
       200030   0.000709356
       200035   0.000709346
       200040   0.000709336
       200045   0.000709327
       200050   0.000709317
       200055   0.000709308
       200060   0.000709298
       200065   0.000709288
       200070   0.000709279
       200075   0.000709269
       200080    0.00070926
       200085    0.00070925
       200090    0.00070924
       200095   0.000709231
       200100   0.000709221
       200105   0.000709212
       200110   0.000709202
       200115   0.000709193
       200120   0.000709183
       200125   0.000709173
       200130   0.000709164
       200135   0.000709154
       200140   0.000709145
       200145   0.000709135
       200150   0.000709125
       200155   0.000709116
       200160   0.000709106
       200165   0.000709097
       200170   0.000709087
       200175   0.000709078
       200180   0.000709068
       200185   0.000709059
       200190   0.000709049
       200195   0.000709039
       200200    0.00070903
       200205    0.00070902
       200210   0.000709011
       200215   0.000709001
       200220   0.000708992
       200225   0.000708982
       200230   0.000708972
       200235   0.000708963
       200240   0.000708953
       200245   0.000708944
       200250   0.000708934
       200255   0.000708925
       200260   0.000708915
       200265   0.000708906
       200270   0.000708896
       200275   0.000708887
       200280   0.000708877
       200285   0.000708868
       200290   0.000708858
       200295   0.000708848
       200300   0.000708839
       200305   0.000708829
       200310    0.00070882
       200315    0.00070881
       200320   0.000708801
       200325   0.000708791
       200330   0.000708782
       200335   0.000708772
       200340   0.000708763
       200345   0.000708753
       200350   0.000708744
       200355   0.000708734
       200360   0.000708725
       200365   0.000708715
       200370   0.000708706
       200375   0.000708696
       200380   0.000708687
       200385   0.000708677
       200390   0.000708668
       200395   0.000708658
       200400   0.000708649
       200405   0.000708639
       200410    0.00070863
       200415    0.00070862
       200420   0.000708611
       200425   0.000708601
       200430   0.000708592
       200435   0.000708582
       200440   0.000708573
       200445   0.000708563
       200450   0.000708554
       200455   0.000708544
       200460   0.000708535
       200465   0.000708525
       200470   0.000708516
       200475   0.000708506
       200480   0.000708497
       200485   0.000708487
       200490   0.000708478
       200495   0.000708468
       200500   0.000708459
       200505   0.000708449
       200510    0.00070844
       200515   0.000708431
       200520   0.000708421
       200525   0.000708412
       200530   0.000708402
       200535   0.000708393
       200540   0.000708383
       200545   0.000708374
       200550   0.000708364
       200555   0.000708355
       200560   0.000708345
       200565   0.000708336
       200570   0.000708327
       200575   0.000708317
       200580   0.000708308
       200585   0.000708298
       200590   0.000708289
       200595   0.000708279
       200600    0.00070827
       200605    0.00070826
       200610   0.000708251
       200615   0.000708242
       200620   0.000708232
       200625   0.000708223
       200630   0.000708213
       200635   0.000708204
       200640   0.000708194
       200645   0.000708185
       200650   0.000708176
       200655   0.000708166
       200660   0.000708157
       200665   0.000708147
       200670   0.000708138
       200675   0.000708128
       200680   0.000708119
       200685    0.00070811
       200690     0.0007081
       200695   0.000708091
       200700   0.000708081
       200705   0.000708072
       200710   0.000708062
       200715   0.000708053
       200720   0.000708044
       200725   0.000708034
       200730   0.000708025
       200735   0.000708015
       200740   0.000708006
       200745   0.000707997
       200750   0.000707987
       200755   0.000707978
       200760   0.000707968
       200765   0.000707959
       200770    0.00070795
       200775    0.00070794
       200780   0.000707931
       200785   0.000707922
       200790   0.000707912
       200795   0.000707903
       200800   0.000707893
       200805   0.000707884
       200810   0.000707875
       200815   0.000707865
       200820   0.000707856
       200825   0.000707846
       200830   0.000707837
       200835   0.000707828
       200840   0.000707818
       200845   0.000707809
       200850     0.0007078
       200855    0.00070779
       200860   0.000707781
       200865   0.000707772
       200870   0.000707762
       200875   0.000707753
       200880   0.000707743
       200885   0.000707734
       200890   0.000707725
       200895   0.000707715
       200900   0.000707706
       200905   0.000707697
       200910   0.000707687
       200915   0.000707678
       200920   0.000707669
       200925   0.000707659
       200930    0.00070765
       200935   0.000707641
       200940   0.000707631
       200945   0.000707622
       200950   0.000707613
       200955   0.000707603
       200960   0.000707594
       200965   0.000707585
       200970   0.000707575
       200975   0.000707566
       200980   0.000707557
       200985   0.000707547
       200990   0.000707538
       200995   0.000707529
       201000   0.000707519
       201005    0.00070751
       201010   0.000707501
       201015   0.000707491
       201020   0.000707482
       201025   0.000707473
       201030   0.000707463
       201035   0.000707454
       201040   0.000707445
       201045   0.000707435
       201050   0.000707426
       201055   0.000707417
       201060   0.000707407
       201065   0.000707398
       201070   0.000707389
       201075    0.00070738
       201080    0.00070737
       201085   0.000707361
       201090   0.000707352
       201095   0.000707342
       201100   0.000707333
       201105   0.000707324
       201110   0.000707314
       201115   0.000707305
       201120   0.000707296
       201125   0.000707287
       201130   0.000707277
       201135   0.000707268
       201140   0.000707259
       201145   0.000707249
       201150    0.00070724
       201155   0.000707231
       201160   0.000707222
       201165   0.000707212
       201170   0.000707203
       201175   0.000707194
       201180   0.000707185
       201185   0.000707175
       201190   0.000707166
       201195   0.000707157
       201200   0.000707147
       201205   0.000707138
       201210   0.000707129
       201215    0.00070712
       201220    0.00070711
       201225   0.000707101
       201230   0.000707092
       201235   0.000707083
       201240   0.000707073
       201245   0.000707064
       201250   0.000707055
       201255   0.000707046
       201260   0.000707036
       201265   0.000707027
       201270   0.000707018
       201275   0.000707009
       201280   0.000706999
       201285    0.00070699
       201290   0.000706981
       201295   0.000706972
       201300   0.000706962
       201305   0.000706953
       201310   0.000706944
       201315   0.000706935
       201320   0.000706926
       201325   0.000706916
       201330   0.000706907
       201335   0.000706898
       201340   0.000706889
       201345   0.000706879
       201350    0.00070687
       201355   0.000706861
       201360   0.000706852
       201365   0.000706842
       201370   0.000706833
       201375   0.000706824
       201380   0.000706815
       201385   0.000706806
       201390   0.000706796
       201395   0.000706787
       201400   0.000706778
       201405   0.000706769
       201410    0.00070676
       201415    0.00070675
       201420   0.000706741
       201425   0.000706732
       201430   0.000706723
       201435   0.000706714
       201440   0.000706704
       201445   0.000706695
       201450   0.000706686
       201455   0.000706677
       201460   0.000706668
       201465   0.000706658
       201470   0.000706649
       201475    0.00070664
       201480   0.000706631
       201485   0.000706622
       201490   0.000706612
       201495   0.000706603
       201500   0.000706594
       201505   0.000706585
       201510   0.000706576
       201515   0.000706567
       201520   0.000706557
       201525   0.000706548
       201530   0.000706539
       201535    0.00070653
       201540   0.000706521
       201545   0.000706512
       201550   0.000706502
       201555   0.000706493
       201560   0.000706484
       201565   0.000706475
       201570   0.000706466
       201575   0.000706457
       201580   0.000706447
       201585   0.000706438
       201590   0.000706429
       201595    0.00070642
       201600   0.000706411
       201605   0.000706402
       201610   0.000706392
       201615   0.000706383
       201620   0.000706374
       201625   0.000706365
       201630   0.000706356
       201635   0.000706347
       201640   0.000706338
       201645   0.000706328
       201650   0.000706319
       201655    0.00070631
       201660   0.000706301
       201665   0.000706292
       201670   0.000706283
       201675   0.000706274
       201680   0.000706265
       201685   0.000706255
       201690   0.000706246
       201695   0.000706237
       201700   0.000706228
       201705   0.000706219
       201710    0.00070621
       201715   0.000706201
       201720   0.000706192
       201725   0.000706182
       201730   0.000706173
       201735   0.000706164
       201740   0.000706155
       201745   0.000706146
       201750   0.000706137
       201755   0.000706128
       201760   0.000706119
       201765    0.00070611
       201770     0.0007061
       201775   0.000706091
       201780   0.000706082
       201785   0.000706073
       201790   0.000706064
       201795   0.000706055
       201800   0.000706046
       201805   0.000706037
       201810   0.000706028
       201815   0.000706019
       201820   0.000706009
       201825      0.000706
       201830   0.000705991
       201835   0.000705982
       201840   0.000705973
       201845   0.000705964
       201850   0.000705955
       201855   0.000705946
       201860   0.000705937
       201865   0.000705928
       201870   0.000705919
       201875    0.00070591
       201880     0.0007059
       201885   0.000705891
       201890   0.000705882
       201895   0.000705873
       201900   0.000705864
       201905   0.000705855
       201910   0.000705846
       201915   0.000705837
       201920   0.000705828
       201925   0.000705819
       201930    0.00070581
       201935   0.000705801
       201940   0.000705792
       201945   0.000705783
       201950   0.000705774
       201955   0.000705765
       201960   0.000705755
       201965   0.000705746
       201970   0.000705737
       201975   0.000705728
       201980   0.000705719
       201985    0.00070571
       201990   0.000705701
       201995   0.000705692
       202000   0.000705683
       202005   0.000705674
       202010   0.000705665
       202015   0.000705656
       202020   0.000705647
       202025   0.000705638
       202030   0.000705629
       202035    0.00070562
       202040   0.000705611
       202045   0.000705602
       202050   0.000705593
       202055   0.000705584
       202060   0.000705575
       202065   0.000705566
       202070   0.000705557
       202075   0.000705548
       202080   0.000705539
       202085    0.00070553
       202090   0.000705521
       202095   0.000705512
       202100   0.000705503
       202105   0.000705494
       202110   0.000705485
       202115   0.000705476
       202120   0.000705467
       202125   0.000705458
       202130   0.000705449
       202135    0.00070544
       202140   0.000705431
       202145   0.000705422
       202150   0.000705413
       202155   0.000705404
       202160   0.000705395
       202165   0.000705386
       202170   0.000705377
       202175   0.000705368
       202180   0.000705359
       202185    0.00070535
       202190   0.000705341
       202195   0.000705332
       202200   0.000705323
       202205   0.000705314
       202210   0.000705305
       202215   0.000705296
       202220   0.000705287
       202225   0.000705278
       202230   0.000705269
       202235    0.00070526
       202240   0.000705251
       202245   0.000705242
       202250   0.000705233
       202255   0.000705224
       202260   0.000705215
       202265   0.000705206
       202270   0.000705197
       202275   0.000705188
       202280   0.000705179
       202285    0.00070517
       202290   0.000705161
       202295   0.000705152
       202300   0.000705143
       202305   0.000705134
       202310   0.000705125
       202315   0.000705116
       202320   0.000705107
       202325   0.000705098
       202330    0.00070509
       202335   0.000705081
       202340   0.000705072
       202345   0.000705063
       202350   0.000705054
       202355   0.000705045
       202360   0.000705036
       202365   0.000705027
       202370   0.000705018
       202375   0.000705009
       202380      0.000705
       202385   0.000704991
       202390   0.000704982
       202395   0.000704973
       202400   0.000704964
       202405   0.000704955
       202410   0.000704947
       202415   0.000704938
       202420   0.000704929
       202425    0.00070492
       202430   0.000704911
       202435   0.000704902
       202440   0.000704893
       202445   0.000704884
       202450   0.000704875
       202455   0.000704866
       202460   0.000704857
       202465   0.000704848
       202470    0.00070484
       202475   0.000704831
       202480   0.000704822
       202485   0.000704813
       202490   0.000704804
       202495   0.000704795
       202500   0.000704786
       202505   0.000704777
       202510   0.000704768
       202515   0.000704759
       202520   0.000704751
       202525   0.000704742
       202530   0.000704733
       202535   0.000704724
       202540   0.000704715
       202545   0.000704706
       202550   0.000704697
       202555   0.000704688
       202560   0.000704679
       202565   0.000704671
       202570   0.000704662
       202575   0.000704653
       202580   0.000704644
       202585   0.000704635
       202590   0.000704626
       202595   0.000704617
       202600   0.000704608
       202605   0.000704599
       202610   0.000704591
       202615   0.000704582
       202620   0.000704573
       202625   0.000704564
       202630   0.000704555
       202635   0.000704546
       202640   0.000704537
       202645   0.000704529
       202650    0.00070452
       202655   0.000704511
       202660   0.000704502
       202665   0.000704493
       202670   0.000704484
       202675   0.000704475
       202680   0.000704467
       202685   0.000704458
       202690   0.000704449
       202695    0.00070444
       202700   0.000704431
       202705   0.000704422
       202710   0.000704413
       202715   0.000704405
       202720   0.000704396
       202725   0.000704387
       202730   0.000704378
       202735   0.000704369
       202740    0.00070436
       202745   0.000704352
       202750   0.000704343
       202755   0.000704334
       202760   0.000704325
       202765   0.000704316
       202770   0.000704307
       202775   0.000704299
       202780    0.00070429
       202785   0.000704281
       202790   0.000704272
       202795   0.000704263
       202800   0.000704254
       202805   0.000704246
       202810   0.000704237
       202815   0.000704228
       202820   0.000704219
       202825    0.00070421
       202830   0.000704202
       202835   0.000704193
       202840   0.000704184
       202845   0.000704175
       202850   0.000704166
       202855   0.000704158
       202860   0.000704149
       202865    0.00070414
       202870   0.000704131
       202875   0.000704122
       202880   0.000704114
       202885   0.000704105
       202890   0.000704096
       202895   0.000704087
       202900   0.000704078
       202905    0.00070407
       202910   0.000704061
       202915   0.000704052
       202920   0.000704043
       202925   0.000704034
       202930   0.000704026
       202935   0.000704017
       202940   0.000704008
       202945   0.000703999
       202950   0.000703991
       202955   0.000703982
       202960   0.000703973
       202965   0.000703964
       202970   0.000703955
       202975   0.000703947
       202980   0.000703938
       202985   0.000703929
       202990    0.00070392
       202995   0.000703912
       203000   0.000703903
       203005   0.000703894
       203010   0.000703885
       203015   0.000703877
       203020   0.000703868
       203025   0.000703859
       203030    0.00070385
       203035   0.000703841
       203040   0.000703833
       203045   0.000703824
       203050   0.000703815
       203055   0.000703806
       203060   0.000703798
       203065   0.000703789
       203070    0.00070378
       203075   0.000703771
       203080   0.000703763
       203085   0.000703754
       203090   0.000703745
       203095   0.000703736
       203100   0.000703728
       203105   0.000703719
       203110    0.00070371
       203115   0.000703702
       203120   0.000703693
       203125   0.000703684
       203130   0.000703675
       203135   0.000703667
       203140   0.000703658
       203145   0.000703649
       203150    0.00070364
       203155   0.000703632
       203160   0.000703623
       203165   0.000703614
       203170   0.000703606
       203175   0.000703597
       203180   0.000703588
       203185   0.000703579
       203190   0.000703571
       203195   0.000703562
       203200   0.000703553
       203205   0.000703545
       203210   0.000703536
       203215   0.000703527
       203220   0.000703518
       203225    0.00070351
       203230   0.000703501
       203235   0.000703492
       203240   0.000703484
       203245   0.000703475
       203250   0.000703466
       203255   0.000703457
       203260   0.000703449
       203265    0.00070344
       203270   0.000703431
       203275   0.000703423
       203280   0.000703414
       203285   0.000703405
       203290   0.000703397
       203295   0.000703388
       203300   0.000703379
       203305   0.000703371
       203310   0.000703362
       203315   0.000703353
       203320   0.000703345
       203325   0.000703336
       203330   0.000703327
       203335   0.000703318
       203340    0.00070331
       203345   0.000703301
       203350   0.000703292
       203355   0.000703284
       203360   0.000703275
       203365   0.000703266
       203370   0.000703258
       203375   0.000703249
       203380    0.00070324
       203385   0.000703232
       203390   0.000703223
       203395   0.000703214
       203400   0.000703206
       203405   0.000703197
       203410   0.000703189
       203415    0.00070318
       203420   0.000703171
       203425   0.000703163
       203430   0.000703154
       203435   0.000703145
       203440   0.000703137
       203445   0.000703128
       203450   0.000703119
       203455   0.000703111
       203460   0.000703102
       203465   0.000703093
       203470   0.000703085
       203475   0.000703076
       203480   0.000703067
       203485   0.000703059
       203490    0.00070305
       203495   0.000703042
       203500   0.000703033
       203505   0.000703024
       203510   0.000703016
       203515   0.000703007
       203520   0.000702998
       203525    0.00070299
       203530   0.000702981
       203535   0.000702973
       203540   0.000702964
       203545   0.000702955
       203550   0.000702947
       203555   0.000702938
       203560   0.000702929
       203565   0.000702921
       203570   0.000702912
       203575   0.000702904
       203580   0.000702895
       203585   0.000702886
       203590   0.000702878
       203595   0.000702869
       203600   0.000702861
       203605   0.000702852
       203610   0.000702843
       203615   0.000702835
       203620   0.000702826
       203625   0.000702817
       203630   0.000702809
       203635     0.0007028
       203640   0.000702792
       203645   0.000702783
       203650   0.000702775
       203655   0.000702766
       203660   0.000702757
       203665   0.000702749
       203670    0.00070274
       203675   0.000702732
       203680   0.000702723
       203685   0.000702714
       203690   0.000702706
       203695   0.000702697
       203700   0.000702689
       203705    0.00070268
       203710   0.000702671
       203715   0.000702663
       203720   0.000702654
       203725   0.000702646
       203730   0.000702637
       203735   0.000702629
       203740    0.00070262
       203745   0.000702611
       203750   0.000702603
       203755   0.000702594
       203760   0.000702586
       203765   0.000702577
       203770   0.000702569
       203775    0.00070256
       203780   0.000702552
       203785   0.000702543
       203790   0.000702534
       203795   0.000702526
       203800   0.000702517
       203805   0.000702509
       203810     0.0007025
       203815   0.000702492
       203820   0.000702483
       203825   0.000702475
       203830   0.000702466
       203835   0.000702457
       203840   0.000702449
       203845    0.00070244
       203850   0.000702432
       203855   0.000702423
       203860   0.000702415
       203865   0.000702406
       203870   0.000702398
       203875   0.000702389
       203880   0.000702381
       203885   0.000702372
       203890   0.000702364
       203895   0.000702355
       203900   0.000702346
       203905   0.000702338
       203910   0.000702329
       203915   0.000702321
       203920   0.000702312
       203925   0.000702304
       203930   0.000702295
       203935   0.000702287
       203940   0.000702278
       203945    0.00070227
       203950   0.000702261
       203955   0.000702253
       203960   0.000702244
       203965   0.000702236
       203970   0.000702227
       203975   0.000702219
       203980    0.00070221
       203985   0.000702202
       203990   0.000702193
       203995   0.000702185
       204000   0.000702176
       204005   0.000702168
       204010   0.000702159
       204015   0.000702151
       204020   0.000702142
       204025   0.000702134
       204030   0.000702125
       204035   0.000702117
       204040   0.000702108
       204045     0.0007021
       204050   0.000702091
       204055   0.000702083
       204060   0.000702074
       204065   0.000702066
       204070   0.000702057
       204075   0.000702049
       204080    0.00070204
       204085   0.000702032
       204090   0.000702023
       204095   0.000702015
       204100   0.000702006
       204105   0.000701998
       204110   0.000701989
       204115   0.000701981
       204120   0.000701973
       204125   0.000701964
       204130   0.000701956
       204135   0.000701947
       204140   0.000701939
       204145    0.00070193
       204150   0.000701922
       204155   0.000701913
       204160   0.000701905
       204165   0.000701896
       204170   0.000701888
       204175   0.000701879
       204180   0.000701871
       204185   0.000701862
       204190   0.000701854
       204195   0.000701846
       204200   0.000701837
       204205   0.000701829
       204210    0.00070182
       204215   0.000701812
       204220   0.000701803
       204225   0.000701795
       204230   0.000701786
       204235   0.000701778
       204240    0.00070177
       204245   0.000701761
       204250   0.000701753
       204255   0.000701744
       204260   0.000701736
       204265   0.000701727
       204270   0.000701719
       204275   0.000701711
       204280   0.000701702
       204285   0.000701694
       204290   0.000701685
       204295   0.000701677
       204300   0.000701668
       204305    0.00070166
       204310   0.000701652
       204315   0.000701643
       204320   0.000701635
       204325   0.000701626
       204330   0.000701618
       204335   0.000701609
       204340   0.000701601
       204345   0.000701593
       204350   0.000701584
       204355   0.000701576
       204360   0.000701567
       204365   0.000701559
       204370   0.000701551
       204375   0.000701542
       204380   0.000701534
       204385   0.000701525
       204390   0.000701517
       204395   0.000701509
       204400     0.0007015
       204405   0.000701492
       204410   0.000701483
       204415   0.000701475
       204420   0.000701467
       204425   0.000701458
       204430    0.00070145
       204435   0.000701441
       204440   0.000701433
       204445   0.000701425
       204450   0.000701416
       204455   0.000701408
       204460   0.000701399
       204465   0.000701391
       204470   0.000701383
       204475   0.000701374
       204480   0.000701366
       204485   0.000701358
       204490   0.000701349
       204495   0.000701341
       204500   0.000701332
       204505   0.000701324
       204510   0.000701316
       204515   0.000701307
       204520   0.000701299
       204525   0.000701291
       204530   0.000701282
       204535   0.000701274
       204540   0.000701265
       204545   0.000701257
       204550   0.000701249
       204555    0.00070124
       204560   0.000701232
       204565   0.000701224
       204570   0.000701215
       204575   0.000701207
       204580   0.000701199
       204585    0.00070119
       204590   0.000701182
       204595   0.000701174
       204600   0.000701165
       204605   0.000701157
       204610   0.000701148
       204615    0.00070114
       204620   0.000701132
       204625   0.000701123
       204630   0.000701115
       204635   0.000701107
       204640   0.000701098
       204645    0.00070109
       204650   0.000701082
       204655   0.000701073
       204660   0.000701065
       204665   0.000701057
       204670   0.000701048
       204675    0.00070104
       204680   0.000701032
       204685   0.000701023
       204690   0.000701015
       204695   0.000701007
       204700   0.000700998
       204705    0.00070099
       204710   0.000700982
       204715   0.000700974
       204720   0.000700965
       204725   0.000700957
       204730   0.000700949
       204735    0.00070094
       204740   0.000700932
       204745   0.000700924
       204750   0.000700915
       204755   0.000700907
       204760   0.000700899
       204765    0.00070089
       204770   0.000700882
       204775   0.000700874
       204780   0.000700865
       204785   0.000700857
       204790   0.000700849
       204795   0.000700841
       204800   0.000700832
       204805   0.000700824
       204810   0.000700816
       204815   0.000700807
       204820   0.000700799
       204825   0.000700791
       204830   0.000700782
       204835   0.000700774
       204840   0.000700766
       204845   0.000700758
       204850   0.000700749
       204855   0.000700741
       204860   0.000700733
       204865   0.000700724
       204870   0.000700716
       204875   0.000700708
       204880     0.0007007
       204885   0.000700691
       204890   0.000700683
       204895   0.000700675
       204900   0.000700667
       204905   0.000700658
       204910    0.00070065
       204915   0.000700642
       204920   0.000700633
       204925   0.000700625
       204930   0.000700617
       204935   0.000700609
       204940     0.0007006
       204945   0.000700592
       204950   0.000700584
       204955   0.000700576
       204960   0.000700567
       204965   0.000700559
       204970   0.000700551
       204975   0.000700543
       204980   0.000700534
       204985   0.000700526
       204990   0.000700518
       204995    0.00070051
       205000   0.000700501
       205005   0.000700493
       205010   0.000700485
       205015   0.000700477
       205020   0.000700468
       205025    0.00070046
       205030   0.000700452
       205035   0.000700444
       205040   0.000700435
       205045   0.000700427
       205050   0.000700419
       205055   0.000700411
       205060   0.000700402
       205065   0.000700394
       205070   0.000700386
       205075   0.000700378
       205080    0.00070037
       205085   0.000700361
       205090   0.000700353
       205095   0.000700345
       205100   0.000700337
       205105   0.000700328
       205110    0.00070032
       205115   0.000700312
       205120   0.000700304
       205125   0.000700296
       205130   0.000700287
       205135   0.000700279
       205140   0.000700271
       205145   0.000700263
       205150   0.000700254
       205155   0.000700246
       205160   0.000700238
       205165    0.00070023
       205170   0.000700222
       205175   0.000700213
       205180   0.000700205
       205185   0.000700197
       205190   0.000700189
       205195   0.000700181
       205200   0.000700172
       205205   0.000700164
       205210   0.000700156
       205215   0.000700148
       205220    0.00070014
       205225   0.000700131
       205230   0.000700123
       205235   0.000700115
       205240   0.000700107
       205245   0.000700099
       205250    0.00070009
       205255   0.000700082
       205260   0.000700074
       205265   0.000700066
       205270   0.000700058
       205275    0.00070005
       205280   0.000700041
       205285   0.000700033
       205290   0.000700025
       205295   0.000700017
       205300   0.000700009
       205305   0.000700001
       205310   0.000699992
       205315   0.000699984
       205320   0.000699976
       205325   0.000699968
       205330    0.00069996
       205335   0.000699952
       205340   0.000699943