# Probe 0 (0.05 0.05 0.005)
#       Probe             0
#        Time
       200005   0.000709415
       200010   0.000709405
       200015   0.000709395
       200020   0.000709386
       200025   0.000709376
       200030   0.000709367
       200035   0.000709357
       200040   0.000709347
       200045   0.000709338
       200050   0.000709328
       200055   0.000709318
       200060   0.000709309
       200065   0.000709299
       200070    0.00070929
       200075    0.00070928
       200080    0.00070927
       200085   0.000709261
       200090   0.000709251
       200095   0.000709242
       200100   0.000709232
       200105   0.000709223
       200110   0.000709213
       200115   0.000709203
       200120   0.000709194
       200125   0.000709184
       200130   0.000709175
       200135   0.000709165
       200140   0.000709155
       200145   0.000709146
       200150   0.000709136
       200155   0.000709127
       200160   0.000709117
       200165   0.000709108
       200170   0.000709098
       200175   0.000709088
       200180   0.000709079
       200185   0.000709069
       200190    0.00070906
       200195    0.00070905
       200200   0.000709041
       200205   0.000709031
       200210   0.000709022
       200215   0.000709012
       200220   0.000709002
       200225   0.000708993
       200230   0.000708983
       200235   0.000708974
       200240   0.000708964
       200245   0.000708955
       200250   0.000708945
       200255   0.000708936
       200260   0.000708926
       200265   0.000708916
       200270   0.000708907
       200275   0.000708897
       200280   0.000708888
       200285   0.000708878
       200290   0.000708869
       200295   0.000708859
       200300    0.00070885
       200305    0.00070884
       200310   0.000708831
       200315   0.000708821
       200320   0.000708812
       200325   0.000708802
       200330   0.000708793
       200335   0.000708783
       200340   0.000708774
       200345   0.000708764
       200350   0.000708755
       200355   0.000708745
       200360   0.000708736
       200365   0.000708726
       200370   0.000708716
       200375   0.000708707
       200380   0.000708697
       200385   0.000708688
       200390   0.000708678
       200395   0.000708669
       200400   0.000708659
       200405    0.00070865
       200410    0.00070864
       200415   0.000708631
       200420   0.000708621
       200425   0.000708612
       200430   0.000708602
       200435   0.000708593
       200440   0.000708584
       200445   0.000708574
       200450   0.000708565
       200455   0.000708555
       200460   0.000708546
       200465   0.000708536
       200470   0.000708527
       200475   0.000708517
       200480   0.000708508
       200485   0.000708498
       200490   0.000708489
       200495   0.000708479
       200500    0.00070847
       200505    0.00070846
       200510   0.000708451
       200515   0.000708441
       200520   0.000708432
       200525   0.000708422
       200530   0.000708413
       200535   0.000708404
       200540   0.000708394
       200545   0.000708385
       200550   0.000708375
       200555   0.000708366
       200560   0.000708356
       200565   0.000708347
       200570   0.000708337
       200575   0.000708328
       200580   0.000708318
       200585   0.000708309
       200590     0.0007083
       200595    0.00070829
       200600   0.000708281
       200605   0.000708271
       200610   0.000708262
       200615   0.000708252
       200620   0.000708243
       200625   0.000708233
       200630   0.000708224
       200635   0.000708215
       200640   0.000708205
       200645   0.000708196
       200650   0.000708186
       200655   0.000708177
       200660   0.000708167
       200665   0.000708158
       200670   0.000708149
       200675   0.000708139
       200680    0.00070813
       200685    0.00070812
       200690   0.000708111
       200695   0.000708102
       200700   0.000708092
       200705   0.000708083
       200710   0.000708073
       200715   0.000708064
       200720   0.000708055
       200725   0.000708045
       200730   0.000708036
       200735   0.000708026
       200740   0.000708017
       200745   0.000708007
       200750   0.000707998
       200755   0.000707989
       200760   0.000707979
       200765    0.00070797
       200770   0.000707961
       200775   0.000707951
       200780   0.000707942
       200785   0.000707932
       200790   0.000707923
       200795   0.000707914
       200800   0.000707904
       200805   0.000707895
       200810   0.000707885
       200815   0.000707876
       200820   0.000707867
       200825   0.000707857
       200830   0.000707848
       200835   0.000707839
       200840   0.000707829
       200845    0.00070782
       200850    0.00070781
       200855   0.000707801
       200860   0.000707792
       200865   0.000707782
       200870   0.000707773
       200875   0.000707764
       200880   0.000707754
       200885   0.000707745
       200890   0.000707736
       200895   0.000707726
       200900   0.000707717
       200905   0.000707708
       200910   0.000707698
       200915   0.000707689
       200920   0.000707679
       200925    0.00070767
       200930   0.000707661
       200935   0.000707651
       200940   0.000707642
       200945   0.000707633
       200950   0.000707623
       200955   0.000707614
       200960   0.000707605
       200965   0.000707595
       200970   0.000707586
       200975   0.000707577
       200980   0.000707567
       200985   0.000707558
       200990   0.000707549
       200995   0.000707539
       201000    0.00070753
       201005   0.000707521
       201010   0.000707511
       201015   0.000707502
       201020   0.000707493
       201025   0.000707483
       201030   0.000707474
       201035   0.000707465
       201040   0.000707456
       201045   0.000707446
       201050   0.000707437
       201055   0.000707428
       201060   0.000707418
       201065   0.000707409
       201070     0.0007074
       201075    0.00070739
       201080   0.000707381
       201085   0.000707372
       201090   0.000707362
       201095   0.000707353
       201100   0.000707344
       201105   0.000707335
       201110   0.000707325
       201115   0.000707316
       201120   0.000707307
       201125   0.000707297
       201130   0.000707288
       201135   0.000707279
       201140    0.00070727
       201145    0.00070726
       201150   0.000707251
       201155   0.000707242
       201160   0.000707232
       201165   0.000707223
       201170   0.000707214
       201175   0.000707205
       201180   0.000707195
       201185   0.000707186
       201190   0.000707177
       201195   0.000707168
       201200   0.000707158
       201205   0.000707149
       201210    0.00070714
       201215   0.000707131
       201220   0.000707121
       201225   0.000707112
       201230   0.000707103
       201235   0.000707093
       201240   0.000707084
       201245   0.000707075
       201250   0.000707066
       201255   0.000707056
       201260   0.000707047
       201265   0.000707038
       201270   0.000707029
       201275   0.000707019
       201280    0.00070701
       201285   0.000707001
       201290   0.000706992
       201295   0.000706982
       201300   0.000706973
       201305   0.000706964
       201310   0.000706955
       201315   0.000706946
       201320   0.000706936
       201325   0.000706927
       201330   0.000706918
       201335   0.000706909
       201340   0.000706899
       201345    0.00070689
       201350   0.000706881
       201355   0.000706872
       201360   0.000706863
       201365   0.000706853
       201370   0.000706844
       201375   0.000706835
       201380   0.000706826
       201385   0.000706816
       201390   0.000706807
       201395   0.000706798
       201400   0.000706789
       201405    0.00070678
       201410    0.00070677
       201415   0.000706761
       201420   0.000706752
       201425   0.000706743
       201430   0.000706734
       201435   0.000706724
       201440   0.000706715
       201445   0.000706706
       201450   0.000706697
       201455   0.000706688
       201460   0.000706678
       201465   0.000706669
       201470    0.00070666
       201475   0.000706651
       201480   0.000706642
       201485   0.000706632
       201490   0.000706623
       201495   0.000706614
       201500   0.000706605
       201505   0.000706596
       201510   0.000706587
       201515   0.000706577
       201520   0.000706568
       201525   0.000706559
       201530    0.00070655
       201535   0.000706541
       201540   0.000706532
       201545   0.000706522
       201550   0.000706513
       201555   0.000706504
       201560   0.000706495
       201565   0.000706486
       201570   0.000706477
       201575   0.000706467
       201580   0.000706458
       201585   0.000706449
       201590    0.00070644
       201595   0.000706431
       201600   0.000706422
       201605   0.000706412
       201610   0.000706403
       201615   0.000706394
       201620   0.000706385
       201625   0.000706376
       201630   0.000706367
       201635   0.000706358
       201640   0.000706348
       201645   0.000706339
       201650    0.00070633
       201655   0.000706321
       201660   0.000706312
       201665   0.000706303
       201670   0.000706294
       201675   0.000706284
       201680   0.000706275
       201685   0.000706266
       201690   0.000706257
       201695   0.000706248
       201700   0.000706239
       201705    0.00070623
       201710   0.000706221
       201715   0.000706211
       201720   0.000706202
       201725   0.000706193
       201730   0.000706184
       201735   0.000706175
       201740   0.000706166
       201745   0.000706157
       201750   0.000706148
       201755   0.000706139
       201760   0.000706129
       201765    0.00070612
       201770   0.000706111
       201775   0.000706102
       201780   0.000706093
       201785   0.000706084
       201790   0.000706075
       201795   0.000706066
       201800   0.000706057
       201805   0.000706048
       201810   0.000706038
       201815   0.000706029
       201820    0.00070602
       201825   0.000706011
       201830   0.000706002
       201835   0.000705993
       201840   0.000705984
       201845   0.000705975
       201850   0.000705966
       201855   0.000705957
       201860   0.000705948
       201865   0.000705939
       201870   0.000705929
       201875    0.00070592
       201880   0.000705911
       201885   0.000705902
       201890   0.000705893
       201895   0.000705884
       201900   0.000705875
       201905   0.000705866
       201910   0.000705857
       201915   0.000705848
       201920   0.000705839
       201925    0.00070583
       201930   0.000705821
       201935   0.000705812
       201940   0.000705803
       201945   0.000705793
       201950   0.000705784
       201955   0.000705775
       201960   0.000705766
       201965   0.000705757
       201970   0.000705748
       201975   0.000705739
       201980    0.00070573
       201985   0.000705721
       201990   0.000705712
       201995   0.000705703
       202000   0.000705694
       202005   0.000705685
       202010   0.000705676
       202015   0.000705667
       202020   0.000705658
       202025   0.000705649
       202030    0.00070564
       202035   0.000705631
       202040   0.000705622
       202045   0.000705613
       202050   0.000705604
       202055   0.000705595
       202060   0.000705586
       202065   0.000705577
       202070   0.000705568
       202075   0.000705559
       202080   0.000705549
       202085    0.00070554
       202090   0.000705531
       202095   0.000705522
       202100   0.000705513
       202105   0.000705504
       202110   0.000705495
       202115   0.000705486
       202120   0.000705477
       202125   0.000705468
       202130   0.000705459
       202135    0.00070545
       202140   0.000705441
       202145   0.000705432
       202150   0.000705423
       202155   0.000705414
       202160   0.000705405
       202165   0.000705396
       202170   0.000705387
       202175   0.000705378
       202180   0.000705369
       202185    0.00070536
       202190   0.000705351
       202195   0.000705342
       202200   0.000705333
       202205   0.000705324
       202210   0.000705316
       202215   0.000705307
       202220   0.000705298
       202225   0.000705289
       202230    0.00070528
       202235   0.000705271
       202240   0.000705262
       202245   0.000705253
       202250   0.000705244
       202255   0.000705235
       202260   0.000705226
       202265   0.000705217
       202270   0.000705208
       202275   0.000705199
       202280    0.00070519
       202285   0.000705181
       202290   0.000705172
       202295   0.000705163
       202300   0.000705154
       202305   0.000705145
       202310   0.000705136
       202315   0.000705127
       202320   0.000705118
       202325   0.000705109
       202330     0.0007051
       202335   0.000705091
       202340   0.000705082
       202345   0.000705074
       202350   0.000705065
       202355   0.000705056
       202360   0.000705047
       202365   0.000705038
       202370   0.000705029
       202375    0.00070502
       202380   0.000705011
       202385   0.000705002
       202390   0.000704993
       202395   0.000704984
       202400   0.000704975
       202405   0.000704966
       202410   0.000704957
       202415   0.000704948
       202420    0.00070494
       202425   0.000704931
       202430   0.000704922
       202435   0.000704913
       202440   0.000704904
       202445   0.000704895
       202450   0.000704886
       202455   0.000704877
       202460   0.000704868
       202465   0.000704859
       202470    0.00070485
       202475   0.000704841
       202480   0.000704833
       202485   0.000704824
       202490   0.000704815
       202495   0.000704806
       202500   0.000704797
       202505   0.000704788
       202510   0.000704779
       202515    0.00070477
       202520   0.000704761
       202525   0.000704752
       202530   0.000704744
       202535   0.000704735
       202540   0.000704726
       202545   0.000704717
       202550   0.000704708
       202555   0.000704699
       202560    0.00070469
       202565   0.000704681
       202570   0.000704672
       202575   0.000704664
       202580   0.000704655
       202585   0.000704646
       202590   0.000704637
       202595   0.000704628
       202600   0.000704619
       202605    0.00070461
       202610   0.000704601
       202615   0.000704593
       202620   0.000704584
       202625   0.000704575
       202630   0.000704566
       202635   0.000704557
       202640   0.000704548
       202645   0.000704539
       202650   0.000704531
       202655   0.000704522
       202660   0.000704513
       202665   0.000704504
       202670   0.000704495
       202675   0.000704486
       202680   0.000704477
       202685   0.000704469
       202690    0.00070446
       202695   0.000704451
       202700   0.000704442
       202705   0.000704433
       202710   0.000704424
       202715   0.000704415
       202720   0.000704407
       202725   0.000704398
       202730   0.000704389
       202735    0.00070438
       202740   0.000704371
       202745   0.000704362
       202750   0.000704354
       202755   0.000704345
       202760   0.000704336
       202765   0.000704327
       202770   0.000704318
       202775   0.000704309
       202780   0.000704301
       202785   0.000704292
       202790   0.000704283
       202795   0.000704274
       202800   0.000704265
       202805   0.000704256
       202810   0.000704248
       202815   0.000704239
       202820    0.00070423
       202825   0.000704221
       202830   0.000704212
       202835   0.000704204
       202840   0.000704195
       202845   0.000704186
       202850   0.000704177
       202855   0.000704168
       202860    0.00070416
       202865   0.000704151
       202870   0.000704142
       202875   0.000704133
       202880   0.000704124
       202885   0.000704116
       202890   0.000704107
       202895   0.000704098
       202900   0.000704089
       202905    0.00070408
       202910   0.000704072
       202915   0.000704063
       202920   0.000704054
       202925   0.000704045
       202930   0.000704036
       202935   0.000704028
       202940   0.000704019
       202945    0.00070401
       202950   0.000704001
       202955   0.000703993
       202960   0.000703984
       202965   0.000703975
       202970   0.000703966
       202975   0.000703957
       202980   0.000703949
       202985    0.00070394
       202990   0.000703931
       202995   0.000703922
       203000   0.000703914
       203005   0.000703905
       203010   0.000703896
       203015   0.000703887
       203020   0.000703879
       203025    0.00070387
       203030   0.000703861
       203035   0.000703852
       203040   0.000703844
       203045   0.000703835
       203050   0.000703826
       203055   0.000703817
       203060   0.000703809
       203065     0.0007038
       203070   0.000703791
       203075   0.000703782
       203080   0.000703774
       203085   0.000703765
       203090   0.000703756
       203095   0.000703747
       203100   0.000703739
       203105    0.00070373
       203110   0.000703721
       203115   0.000703712
       203120   0.000703704
       203125   0.000703695
       203130   0.000703686
       203135   0.000703677
       203140   0.000703669
       203145    0.00070366
       203150   0.000703651
       203155   0.000703643
       203160   0.000703634
       203165   0.000703625
       203170   0.000703616
       203175   0.000703608
       203180   0.000703599
       203185    0.00070359
       203190   0.000703581
       203195   0.000703573
       203200   0.000703564
       203205   0.000703555
       203210   0.000703547
       203215   0.000703538
       203220   0.000703529
       203225   0.000703521
       203230   0.000703512
       203235   0.000703503
       203240   0.000703494
       203245   0.000703486
       203250   0.000703477
       203255   0.000703468
       203260    0.00070346
       203265   0.000703451
       203270   0.000703442
       203275   0.000703434
       203280   0.000703425
       203285   0.000703416
       203290   0.000703407
       203295   0.000703399
       203300    0.00070339
       203305   0.000703381
       203310   0.000703373
       203315   0.000703364
       203320   0.000703355
       203325   0.000703347
       203330   0.000703338
       203335   0.000703329
       203340   0.000703321
       203345   0.000703312
       203350   0.000703303
       203355   0.000703295
       203360   0.000703286
       203365   0.000703277
       203370   0.000703269
       203375    0.00070326
       203380   0.000703251
       203385   0.000703243
       203390   0.000703234
       203395   0.000703225
       203400   0.000703217
       203405   0.000703208
       203410   0.000703199
       203415   0.000703191
       203420   0.000703182
       203425   0.000703173
       203430   0.000703165
       203435   0.000703156
       203440   0.000703147
       203445   0.000703139
       203450    0.00070313
       203455   0.000703121
       203460   0.000703113
       203465   0.000703104
       203470   0.000703096
       203475   0.000703087
       203480   0.000703078
       203485    0.00070307
       203490   0.000703061
       203495   0.000703052
       203500   0.000703044
       203505   0.000703035
       203510   0.000703026
       203515   0.000703018
       203520   0.000703009
       203525   0.000703001
       203530   0.000702992
       203535   0.000702983
       203540   0.000702975
       203545   0.000702966
       203550   0.000702957
       203555   0.000702949
       203560    0.00070294
       203565   0.000702932
       203570   0.000702923
       203575   0.000702914
       203580   0.000702906
       203585   0.000702897
       203590   0.000702889
       203595    0.00070288
       203600   0.000702871
       203605   0.000702863
       203610   0.000702854
       203615   0.000702846
       203620   0.000702837
       203625   0.000702828
       203630    0.00070282
       203635   0.000702811
       203640   0.000702803
       203645   0.000702794
       203650   0.000702785
       203655   0.000702777
       203660   0.000702768
       203665    0.00070276
       203670   0.000702751
       203675   0.000702742
       203680   0.000702734
       203685   0.000702725
       203690   0.000702717
       203695   0.000702708
       203700   0.000702699
       203705   0.000702691
       203710   0.000702682
       203715   0.000702674
       203720   0.000702665
       203725   0.000702657
       203730   0.000702648
       203735   0.000702639
       203740   0.000702631
       203745   0.000702622
       203750   0.000702614
       203755   0.000702605
       203760   0.000702597
       203765   0.000702588
       203770   0.000702579
       203775   0.000702571
       203780   0.000702562
       203785   0.000702554
       203790   0.000702545
       203795   0.000702537
       203800   0.000702528
       203805    0.00070252
       203810   0.000702511
       203815   0.000702502
       203820   0.000702494
       203825   0.000702485
       203830   0.000702477
       203835   0.000702468
       203840    0.00070246
       203845   0.000702451
       203850   0.000702443
       203855   0.000702434
       203860   0.000702426
       203865   0.000702417
       203870   0.000702409
       203875     0.0007024
       203880   0.000702391
       203885   0.000702383
       203890   0.000702374
       203895   0.000702366
       203900   0.000702357
       203905   0.000702349
       203910    0.00070234
       203915   0.000702332
       203920   0.000702323
       203925   0.000702315
       203930   0.000702306
       203935   0.000702298
       203940   0.000702289
       203945   0.000702281
       203950   0.000702272
       203955   0.000702264
       203960   0.000702255
       203965   0.000702247
       203970   0.000702238
       203975    0.00070223
       203980   0.000702221
       203985   0.000702213
       203990   0.000702204
       203995   0.000702196
       204000   0.000702187
       204005   0.000702179
       204010    0.00070217
       204015   0.000702162
       204020   0.000702153
       204025   0.000702145
       204030   0.000702136
       204035   0.000702128
       204040   0.000702119
       204045   0.000702111
       204050   0.000702102
       204055   0.000702094
       204060   0.000702085
       204065   0.000702077
       204070   0.000702068
       204075    0.00070206
       204080   0.000702051
       204085   0.000702043
       204090   0.000702034
       204095   0.000702026
       204100   0.000702017
       204105   0.000702009
       204110      0.000702
       204115   0.000701992
       204120   0.000701983
       204125   0.000701975
       204130   0.000701966
       204135   0.000701958
       204140   0.000701949
       204145   0.000701941
       204150   0.000701933
       204155   0.000701924
       204160   0.000701916
       204165   0.000701907
       204170   0.000701899
       204175    0.00070189
       204180   0.000701882
       204185   0.000701873
       204190   0.000701865
       204195   0.000701856
       204200   0.000701848
       204205    0.00070184
       204210   0.000701831
       204215   0.000701823
       204220   0.000701814
       204225   0.000701806
       204230   0.000701797
       204235   0.000701789
       204240    0.00070178
       204245   0.000701772
       204250   0.000701764
       204255   0.000701755
       204260   0.000701747
       204265   0.000701738
       204270    0.00070173
       204275   0.000701721
       204280   0.000701713
       204285   0.000701704
       204290   0.000701696
       204295   0.000701688
       204300   0.000701679
       204305   0.000701671
       204310   0.000701662
       204315   0.000701654
       204320   0.000701646
       204325   0.000701637
       204330   0.000701629
       204335    0.00070162
       204340   0.000701612
       204345   0.000701603
       204350   0.000701595
       204355   0.000701587
       204360   0.000701578
       204365    0.00070157
       204370   0.000701561
       204375   0.000701553
       204380   0.000701545
       204385   0.000701536
       204390   0.000701528
       204395   0.000701519
       204400   0.000701511
       204405   0.000701503
       204410   0.000701494
       204415   0.000701486
       204420   0.000701477
       204425   0.000701469
       204430   0.000701461
       204435   0.000701452
       204440   0.000701444
       204445   0.000701435
       204450   0.000701427
       204455   0.000701419
       204460    0.00070141
       204465   0.000701402
       204470   0.000701394
       204475   0.000701385
       204480   0.000701377
       204485   0.000701368
       204490    0.00070136
       204495   0.000701352
       204500   0.000701343
       204505   0.000701335
       204510   0.000701326
       204515   0.000701318
       204520    0.00070131
       204525   0.000701301
       204530   0.000701293
       204535   0.000701285
       204540   0.000701276
       204545   0.000701268
       204550    0.00070126
       204555   0.000701251
       204560   0.000701243
       204565   0.000701234
       204570   0.000701226
       204575   0.000701218
       204580   0.000701209
       204585   0.000701201
       204590   0.000701193
       204595   0.000701184
       204600   0.000701176
       204605   0.000701168
       204610   0.000701159
       204615   0.000701151
       204620   0.000701143
       204625   0.000701134
       204630   0.000701126
       204635   0.000701118
       204640   0.000701109
       204645   0.000701101
       204650   0.000701093
       204655   0.000701084
       204660   0.000701076
       204665   0.000701068
       204670   0.000701059
       204675   0.000701051
       204680   0.000701043
       204685   0.000701034
       204690   0.000701026
       204695   0.000701018
       204700   0.000701009
       204705   0.000701001
       204710   0.000700993
       204715   0.000700984
       204720   0.000700976
       204725   0.000700968
       204730   0.000700959
       204735   0.000700951
       204740   0.000700943
       204745   0.000700934
       204750   0.000700926
       204755   0.000700918
       204760    0.00070091
       204765   0.000700901
       204770   0.000700893
       204775   0.000700885
       204780   0.000700876
       204785   0.000700868
       204790    0.00070086
       204795   0.000700851
       204800   0.000700843
       204805   0.000700835
       204810   0.000700826
       204815   0.000700818
       204820    0.00070081
       204825   0.000700802
       204830   0.000700793
       204835   0.000700785
       204840   0.000700777
       204845   0.000700768
       204850    0.00070076
       204855   0.000700752
       204860   0.000700744
       204865   0.000700735
       204870   0.000700727
       204875   0.000700719
       204880    0.00070071
       204885   0.000700702
       204890   0.000700694
       204895   0.000700686
       204900   0.000700677
       204905   0.000700669
       204910   0.000700661
       204915   0.000700653
       204920   0.000700644
       204925   0.000700636
       204930   0.000700628
       204935   0.000700619
       204940   0.000700611
       204945   0.000700603
       204950   0.000700595
       204955   0.000700586
       204960   0.000700578
       204965    0.00070057
       204970   0.000700562
       204975   0.000700553
       204980   0.000700545
       204985   0.000700537
       204990   0.000700529
       204995    0.00070052
       205000   0.000700512
       205005   0.000700504
       205010   0.000700496
       205015   0.000700487
       205020   0.000700479
       205025   0.000700471
       205030   0.000700463
       205035   0.000700454
       205040   0.000700446
       205045   0.000700438
       205050    0.00070043
       205055   0.000700422
       205060   0.000700413
       205065   0.000700405
       205070   0.000700397
       205075   0.000700389
       205080    0.00070038
       205085   0.000700372
       205090   0.000700364
       205095   0.000700356
       205100   0.000700347
       205105   0.000700339
       205110   0.000700331
       205115   0.000700323
       205120   0.000700315
       205125   0.000700306
       205130   0.000700298
       205135    0.00070029
       205140   0.000700282
       205145   0.000700273
       205150   0.000700265
       205155   0.000700257
       205160   0.000700249
       205165   0.000700241
       205170   0.000700232
       205175   0.000700224
       205180   0.000700216
       205185   0.000700208
       205190     0.0007002
       205195   0.000700191
       205200   0.000700183
       205205   0.000700175
       205210   0.000700167
       205215   0.000700159
       205220    0.00070015
       205225   0.000700142
       205230   0.000700134
       205235   0.000700126
       205240   0.000700118
       205245   0.000700109
       205250   0.000700101
       205255   0.000700093
       205260   0.000700085
       205265   0.000700077
       205270   0.000700069
       205275    0.00070006
       205280   0.000700052
       205285   0.000700044
       205290   0.000700036
       205295   0.000700028
       205300    0.00070002
       205305   0.000700011
       205310   0.000700003
       205315   0.000699995
       205320   0.000699987
       205325   0.000699979
       205330    0.00069997
       205335   0.000699962
       205340   0.000699954