# Probe 0 (0.05 0.05 0.005)
#       Probe             0
#        Time
       200005   0.000709396
       200010   0.000709387
       200015   0.000709377
       200020   0.000709367
       200025   0.000709358
       200030   0.000709348
       200035   0.000709339
       200040   0.000709329
       200045   0.000709319
       200050    0.00070931
       200055     0.0007093
       200060   0.000709291
       200065   0.000709281
       200070   0.000709271
       200075   0.000709262
       200080   0.000709252
       200085   0.000709243
       200090   0.000709233
       200095   0.000709223
       200100   0.000709214
       200105   0.000709204
       200110   0.000709195
       200115   0.000709185
       200120   0.000709175
       200125   0.000709166
       200130   0.000709156
       200135   0.000709147
       200140   0.000709137
       200145   0.000709128
       200150   0.000709118
       200155   0.000709108
       200160   0.000709099
       200165   0.000709089
       200170    0.00070908
       200175    0.00070907
       200180   0.000709061
       200185   0.000709051
       200190   0.000709041
       200195   0.000709032
       200200   0.000709022
       200205   0.000709013
       200210   0.000709003
       200215   0.000708994
       200220   0.000708984
       200225   0.000708974
       200230   0.000708965
       200235   0.000708955
       200240   0.000708946
       200245   0.000708936
       200250   0.000708927
       200255   0.000708917
       200260   0.000708908
       200265   0.000708898
       200270   0.000708889
       200275   0.000708879
       200280    0.00070887
       200285    0.00070886
       200290    0.00070885
       200295   0.000708841
       200300   0.000708831
       200305   0.000708822
       200310   0.000708812
       200315   0.000708803
       200320   0.000708793
       200325   0.000708784
       200330   0.000708774
       200335   0.000708765
       200340   0.000708755
       200345   0.000708746
       200350   0.000708736
       200355   0.000708727
       200360   0.000708717
       200365   0.000708708
       200370   0.000708698
       200375   0.000708689
       200380   0.000708679
       200385    0.00070867
       200390    0.00070866
       200395   0.000708651
       200400   0.000708641
       200405   0.000708632
       200410   0.000708622
       200415   0.000708613
       200420   0.000708603
       200425   0.000708594
       200430   0.000708584
       200435   0.000708575
       200440   0.000708565
       200445   0.000708556
       200450   0.000708546
       200455   0.000708537
       200460   0.000708527
       200465   0.000708518
       200470   0.000708508
       200475   0.000708499
       200480   0.000708489
       200485    0.00070848
       200490    0.00070847
       200495   0.000708461
       200500   0.000708451
       200505   0.000708442
       200510   0.000708432
       200515   0.000708423
       200520   0.000708414
       200525   0.000708404
       200530   0.000708395
       200535   0.000708385
       200540   0.000708376
       200545   0.000708366
       200550   0.000708357
       200555   0.000708347
       200560   0.000708338
       200565   0.000708328
       200570   0.000708319
       200575   0.000708309
       200580     0.0007083
       200585   0.000708291
       200590   0.000708281
       200595   0.000708272
       200600   0.000708262
       200605   0.000708253
       200610   0.000708243
       200615   0.000708234
       200620   0.000708225
       200625   0.000708215
       200630   0.000708206
       200635   0.000708196
       200640   0.000708187
       200645   0.000708177
       200650   0.000708168
       200655   0.000708159
       200660   0.000708149
       200665    0.00070814
       200670    0.00070813
       200675   0.000708121
       200680   0.000708111
       200685   0.000708102
       200690   0.000708093
       200695   0.000708083
       200700   0.000708074
       200705   0.000708064
       200710   0.000708055
       200715   0.000708046
       200720   0.000708036
       200725   0.000708027
       200730   0.000708017
       200735   0.000708008
       200740   0.000707999
       200745   0.000707989
       200750    0.00070798
       200755    0.00070797
       200760   0.000707961
       200765   0.000707952
       200770   0.000707942
       200775   0.000707933
       200780   0.000707923
       200785   0.000707914
       200790   0.000707905
       200795   0.000707895
       200800   0.000707886
       200805   0.000707876
       200810   0.000707867
       200815   0.000707858
       200820   0.000707848
       200825   0.000707839
       200830    0.00070783
       200835    0.00070782
       200840   0.000707811
       200845   0.000707801
       200850   0.000707792
       200855   0.000707783
       200860   0.000707773
       200865   0.000707764
       200870   0.000707755
       200875   0.000707745
       200880   0.000707736
       200885   0.000707727
       200890   0.000707717
       200895   0.000707708
       200900   0.000707698
       200905   0.000707689
       200910    0.00070768
       200915    0.00070767
       200920   0.000707661
       200925   0.000707652
       200930   0.000707642
       200935   0.000707633
       200940   0.000707624
       200945   0.000707614
       200950   0.000707605
       200955   0.000707596
       200960   0.000707586
       200965   0.000707577
       200970   0.000707568
       200975   0.000707558
       200980   0.000707549
       200985    0.00070754
       200990    0.00070753
       200995   0.000707521
       201000   0.000707512
       201005   0.000707502
       201010   0.000707493
       201015   0.000707484
       201020   0.000707474
       201025   0.000707465
       201030   0.000707456
       201035   0.000707446
       201040   0.000707437
       201045   0.000707428
       201050   0.000707419
       201055   0.000707409
       201060     0.0007074
       201065   0.000707391
       201070   0.000707381
       201075   0.000707372
       201080   0.000707363
       201085   0.000707353
       201090   0.000707344
       201095   0.000707335
       201100   0.000707326
       201105   0.000707316
       201110   0.000707307
       201115   0.000707298
       201120   0.000707288
       201125   0.000707279
       201130    0.00070727
       201135    0.00070726
       201140   0.000707251
       201145   0.000707242
       201150   0.000707233
       201155   0.000707223
       201160   0.000707214
       201165   0.000707205
       201170   0.000707196
       201175   0.000707186
       201180   0.000707177
       201185   0.000707168
       201190   0.000707158
       201195   0.000707149
       201200    0.00070714
       201205   0.000707131
       201210   0.000707121
       201215   0.000707112
       201220   0.000707103
       201225   0.000707094
       201230   0.000707084
       201235   0.000707075
       201240   0.000707066
       201245   0.000707057
       201250   0.000707047
       201255   0.000707038
       201260   0.000707029
       201265    0.00070702
       201270    0.00070701
       201275   0.000707001
       201280   0.000706992
       201285   0.000706983
       201290   0.000706973
       201295   0.000706964
       201300   0.000706955
       201305   0.000706946
       201310   0.000706936
       201315   0.000706927
       201320   0.000706918
       201325   0.000706909
       201330   0.000706899
       201335    0.00070689
       201340   0.000706881
       201345   0.000706872
       201350   0.000706863
       201355   0.000706853
       201360   0.000706844
       201365   0.000706835
       201370   0.000706826
       201375   0.000706816
       201380   0.000706807
       201385   0.000706798
       201390   0.000706789
       201395    0.00070678
       201400    0.00070677
       201405   0.000706761
       201410   0.000706752
       201415   0.000706743
       201420   0.000706734
       201425   0.000706724
       201430   0.000706715
       201435   0.000706706
       201440   0.000706697
       201445   0.000706688
       201450   0.000706678
       201455   0.000706669
       201460    0.00070666
       201465   0.000706651
       201470   0.000706642
       201475   0.000706632
       201480   0.000706623
       201485   0.000706614
       201490   0.000706605
       201495   0.000706596
       201500   0.000706587
       201505   0.000706577
       201510   0.000706568
       201515   0.000706559
       201520    0.00070655
       201525   0.000706541
       201530   0.000706531
       201535   0.000706522
       201540   0.000706513
       201545   0.000706504
       201550   0.000706495
       201555   0.000706486
       201560   0.000706476
       201565   0.000706467
       201570   0.000706458
       201575   0.000706449
       201580    0.00070644
       201585   0.000706431
       201590   0.000706422
       201595   0.000706412
       201600   0.000706403
       201605   0.000706394
       201610   0.000706385
       201615   0.000706376
       201620   0.000706367
       201625   0.000706357
       201630   0.000706348
       201635   0.000706339
       201640    0.00070633
       201645   0.000706321
       201650   0.000706312
       201655   0.000706303
       201660   0.000706293
       201665   0.000706284
       201670   0.000706275
       201675   0.000706266
       201680   0.000706257
       201685   0.000706248
       201690   0.000706239
       201695    0.00070623
       201700    0.00070622
       201705   0.000706211
       201710   0.000706202
       201715   0.000706193
       201720   0.000706184
       201725   0.000706175
       201730   0.000706166
       201735   0.000706157
       201740   0.000706148
       201745   0.000706138
       201750   0.000706129
       201755    0.00070612
       201760   0.000706111
       201765   0.000706102
       201770   0.000706093
       201775   0.000706084
       201780   0.000706075
       201785   0.000706066
       201790   0.000706056
       201795   0.000706047
       201800   0.000706038
       201805   0.000706029
       201810    0.00070602
       201815   0.000706011
       201820   0.000706002
       201825   0.000705993
       201830   0.000705984
       201835   0.000705975
       201840   0.000705966
       201845   0.000705956
       201850   0.000705947
       201855   0.000705938
       201860   0.000705929
       201865    0.00070592
       201870   0.000705911
       201875   0.000705902
       201880   0.000705893
       201885   0.000705884
       201890   0.000705875
       201895   0.000705866
       201900   0.000705857
       201905   0.000705848
       201910   0.000705838
       201915   0.000705829
       201920    0.00070582
       201925   0.000705811
       201930   0.000705802
       201935   0.000705793
       201940   0.000705784
       201945   0.000705775
       201950   0.000705766
       201955   0.000705757
       201960   0.000705748
       201965   0.000705739
       201970    0.00070573
       201975   0.000705721
       201980   0.000705712
       201985   0.000705703
       201990   0.000705694
       201995   0.000705685
       202000   0.000705676
       202005   0.000705667
       202010   0.000705657
       202015   0.000705648
       202020   0.000705639
       202025    0.00070563
       202030   0.000705621
       202035   0.000705612
       202040   0.000705603
       202045   0.000705594
       202050   0.000705585
       202055   0.000705576
       202060   0.000705567
       202065   0.000705558
       202070   0.000705549
       202075    0.00070554
       202080   0.000705531
       202085   0.000705522
       202090   0.000705513
       202095   0.000705504
       202100   0.000705495
       202105   0.000705486
       202110   0.000705477
       202115   0.000705468
       202120   0.000705459
       202125    0.00070545
       202130   0.000705441
       202135   0.000705432
       202140   0.000705423
       202145   0.000705414
       202150   0.000705405
       202155   0.000705396
       202160   0.000705387
       202165   0.000705378
       202170   0.000705369
       202175    0.00070536
       202180   0.000705351
       202185   0.000705342
       202190   0.000705333
       202195   0.000705324
       202200   0.000705315
       202205   0.000705306
       202210   0.000705297
       202215   0.000705288
       202220   0.000705279
       202225    0.00070527
       202230   0.000705261
       202235   0.000705252
       202240   0.000705243
       202245   0.000705234
       202250   0.000705225
       202255   0.000705216
       202260   0.000705207
       202265   0.000705198
       202270   0.000705189
       202275    0.00070518
       202280   0.000705172
       202285   0.000705163
       202290   0.000705154
       202295   0.000705145
       202300   0.000705136
       202305   0.000705127
       202310   0.000705118
       202315   0.000705109
       202320     0.0007051
       202325   0.000705091
       202330   0.000705082
       202335   0.000705073
       202340   0.000705064
       202345   0.000705055
       202350   0.000705046
       202355   0.000705037
       202360   0.000705028
       202365   0.000705019
       202370    0.00070501
       202375   0.000705002
       202380   0.000704993
       202385   0.000704984
       202390   0.000704975
       202395   0.000704966
       202400   0.000704957
       202405   0.000704948
       202410   0.000704939
       202415    0.00070493
       202420   0.000704921
       202425   0.000704912
       202430   0.000704903
       202435   0.000704894
       202440   0.000704885
       202445   0.000704877
       202450   0.000704868
       202455   0.000704859
       202460    0.00070485
       202465   0.000704841
       202470   0.000704832
       202475   0.000704823
       202480   0.000704814
       202485   0.000704805
       202490   0.000704796
       202495   0.000704787
       202500   0.000704779
       202505    0.00070477
       202510   0.000704761
       202515   0.000704752
       202520   0.000704743
       202525   0.000704734
       202530   0.000704725
       202535   0.000704716
       202540   0.000704707
       202545   0.000704698
       202550    0.00070469
       202555   0.000704681
       202560   0.000704672
       202565   0.000704663
       202570   0.000704654
       202575   0.000704645
       202580   0.000704636
       202585   0.000704627
       202590   0.000704619
       202595    0.00070461
       202600   0.000704601
       202605   0.000704592
       202610   0.000704583
       202615   0.000704574
       202620   0.000704565
       202625   0.000704556
       202630   0.000704548
       202635   0.000704539
       202640    0.00070453
       202645   0.000704521
       202650   0.000704512
       202655   0.000704503
       202660   0.000704494
       202665   0.000704486
       202670   0.000704477
       202675   0.000704468
       202680   0.000704459
       202685    0.00070445
       202690   0.000704441
       202695   0.000704432
       202700   0.000704424
       202705   0.000704415
       202710   0.000704406
       202715   0.000704397
       202720   0.000704388
       202725   0.000704379
       202730   0.000704371
       202735   0.000704362
       202740   0.000704353
       202745   0.000704344
       202750   0.000704335
       202755   0.000704326
       202760   0.000704318
       202765   0.000704309
       202770     0.0007043
       202775   0.000704291
       202780   0.000704282
       202785   0.000704273
       202790   0.000704265
       202795   0.000704256
       202800   0.000704247
       202805   0.000704238
       202810   0.000704229
       202815    0.00070422
       202820   0.000704212
       202825   0.000704203
       202830   0.000704194
       202835   0.000704185
       202840   0.000704176
       202845   0.000704168
       202850   0.000704159
       202855    0.00070415
       202860   0.000704141
       202865   0.000704132
       202870   0.000704124
       202875   0.000704115
       202880   0.000704106
       202885   0.000704097
       202890   0.000704088
       202895    0.00070408
       202900   0.000704071
       202905   0.000704062
       202910   0.000704053
       202915   0.000704044
       202920   0.000704036
       202925   0.000704027
       202930   0.000704018
       202935   0.000704009
       202940   0.000704001
       202945   0.000703992
       202950   0.000703983
       202955   0.000703974
       202960   0.000703965
       202965   0.000703957
       202970   0.000703948
       202975   0.000703939
       202980    0.00070393
       202985   0.000703922
       202990   0.000703913
       202995   0.000703904
       203000   0.000703895
       203005   0.000703886
       203010   0.000703878
       203015   0.000703869
       203020    0.00070386
       203025   0.000703851
       203030   0.000703843
       203035   0.000703834
       203040   0.000703825
       203045   0.000703816
       203050   0.000703808
       203055   0.000703799
       203060    0.00070379
       203065   0.000703781
       203070   0.000703773
       203075   0.000703764
       203080   0.000703755
       203085   0.000703746
       203090   0.000703738
       203095   0.000703729
       203100    0.00070372
       203105   0.000703711
       203110   0.000703703
       203115   0.000703694
       203120   0.000703685
       203125   0.000703677
       203130   0.000703668
       203135   0.000703659
       203140    0.00070365
       203145   0.000703642
       203150   0.000703633
       203155   0.000703624
       203160   0.000703615
       203165   0.000703607
       203170   0.000703598
       203175   0.000703589
       203180   0.000703581
       203185   0.000703572
       203190   0.000703563
       203195   0.000703554
       203200   0.000703546
       203205   0.000703537
       203210   0.000703528
       203215    0.00070352
       203220   0.000703511
       203225   0.000703502
       203230   0.000703493
       203235   0.000703485
       203240   0.000703476
       203245   0.000703467
       203250   0.000703459
       203255    0.00070345
       203260   0.000703441
       203265   0.000703433
       203270   0.000703424
       203275   0.000703415
       203280   0.000703406
       203285   0.000703398
       203290   0.000703389
       203295    0.00070338
       203300   0.000703372
       203305   0.000703363
       203310   0.000703354
       203315   0.000703346
       203320   0.000703337
       203325   0.000703328
       203330    0.00070332
       203335   0.000703311
       203340   0.000703302
       203345   0.000703294
       203350   0.000703285
       203355   0.000703276
       203360   0.000703268
       203365   0.000703259
       203370    0.00070325
       203375   0.000703242
       203380   0.000703233
       203385   0.000703224
       203390   0.000703216
       203395   0.000703207
       203400   0.000703198
       203405    0.00070319
       203410   0.000703181
       203415   0.000703172
       203420   0.000703164
       203425   0.000703155
       203430   0.000703146
       203435   0.000703138
       203440   0.000703129
       203445    0.00070312
       203450   0.000703112
       203455   0.000703103
       203460   0.000703094
       203465   0.000703086
       203470   0.000703077
       203475   0.000703069
       203480    0.00070306
       203485   0.000703051
       203490   0.000703043
       203495   0.000703034
       203500   0.000703025
       203505   0.000703017
       203510   0.000703008
       203515   0.000702999
       203520   0.000702991
       203525   0.000702982
       203530   0.000702974
       203535   0.000702965
       203540   0.000702956
       203545   0.000702948
       203550   0.000702939
       203555    0.00070293
       203560   0.000702922
       203565   0.000702913
       203570   0.000702905
       203575   0.000702896
       203580   0.000702887
       203585   0.000702879
       203590    0.00070287
       203595   0.000702862
       203600   0.000702853
       203605   0.000702844
       203610   0.000702836
       203615   0.000702827
       203620   0.000702819
       203625    0.00070281
       203630   0.000702801
       203635   0.000702793
       203640   0.000702784
       203645   0.000702776
       203650   0.000702767
       203655   0.000702758
       203660    0.00070275
       203665   0.000702741
       203670   0.000702733
       203675   0.000702724
       203680   0.000702715
       203685   0.000702707
       203690   0.000702698
       203695    0.00070269
       203700   0.000702681
       203705   0.000702673
       203710   0.000702664
       203715   0.000702655
       203720   0.000702647
       203725   0.000702638
       203730    0.00070263
       203735   0.000702621
       203740   0.000702612
       203745   0.000702604
       203750   0.000702595
       203755   0.000702587
       203760   0.000702578
       203765    0.00070257
       203770   0.000702561
       203775   0.000702553
       203780   0.000702544
       203785   0.000702535
       203790   0.000702527
       203795   0.000702518
       203800    0.00070251
       203805   0.000702501
       203810   0.000702493
       203815   0.000702484
       203820   0.000702476
       203825   0.000702467
       203830   0.000702458
       203835    0.00070245
       203840   0.000702441
       203845   0.000702433
       203850   0.000702424
       203855   0.000702416
       203860   0.000702407
       203865   0.000702399
       203870    0.00070239
       203875   0.000702382
       203880   0.000702373
       203885   0.000702365
       203890   0.000702356
       203895   0.000702347
       203900   0.000702339
       203905    0.00070233
       203910   0.000702322
       203915   0.000702313
       203920   0.000702305
       203925   0.000702296
       203930   0.000702288
       203935   0.000702279
       203940   0.000702271
       203945   0.000702262
       203950   0.000702254
       203955   0.000702245
       203960   0.000702237
       203965   0.000702228
       203970    0.00070222
       203975   0.000702211
       203980   0.000702203
       203985   0.000702194
       203990   0.000702186
       203995   0.000702177
       204000   0.000702169
       204005    0.00070216
       204010   0.000702152
       204015   0.000702143
       204020   0.000702135
       204025   0.000702126
       204030   0.000702118
       204035   0.000702109
       204040   0.000702101
       204045   0.000702092
       204050   0.000702084
       204055   0.000702075
       204060   0.000702067
       204065   0.000702058
       204070    0.00070205
       204075   0.000702041
       204080   0.000702033
       204085   0.000702024
       204090   0.000702016
       204095   0.000702007
       204100   0.000701999
       204105    0.00070199
       204110   0.000701982
       204115   0.000701973
       204120   0.000701965
       204125   0.000701956
       204130   0.000701948
       204135    0.00070194
       204140   0.000701931
       204145   0.000701923
       204150   0.000701914
       204155   0.000701906
       204160   0.000701897
       204165   0.000701889
       204170    0.00070188
       204175   0.000701872
       204180   0.000701863
       204185   0.000701855
       204190   0.000701846
       204195   0.000701838
       204200    0.00070183
       204205   0.000701821
       204210   0.000701813
       204215   0.000701804
       204220   0.000701796
       204225   0.000701787
       204230   0.000701779
       204235    0.00070177
       204240   0.000701762
       204245   0.000701754
       204250   0.000701745
       204255   0.000701737
       204260   0.000701728
       204265    0.00070172
       204270   0.000701711
       204275   0.000701703
       204280   0.000701695
       204285   0.000701686
       204290   0.000701678
       204295   0.000701669
       204300   0.000701661
       204305   0.000701652
       204310   0.000701644
       204315   0.000701636
       204320   0.000701627
       204325   0.000701619
       204330    0.00070161
       204335   0.000701602
       204340   0.000701593
       204345   0.000701585
       204350   0.000701577
       204355   0.000701568
       204360    0.00070156
       204365   0.000701551
       204370   0.000701543
       204375   0.000701535
       204380   0.000701526
       204385   0.000701518
       204390   0.000701509
       204395   0.000701501
       204400   0.000701493
       204405   0.000701484
       204410   0.000701476
       204415   0.000701467
       204420   0.000701459
       204425   0.000701451
       204430   0.000701442
       204435   0.000701434
       204440   0.000701425
       204445   0.000701417
       204450   0.000701409
       204455     0.0007014
       204460   0.000701392
       204465   0.000701384
       204470   0.000701375
       204475   0.000701367
       204480   0.000701358
       204485    0.00070135
       204490   0.000701342
       204495   0.000701333
       204500   0.000701325
       204505   0.000701316
       204510   0.000701308
       204515     0.0007013
       204520   0.000701291
       204525   0.000701283
       204530   0.000701275
       204535   0.000701266
       204540   0.000701258
       204545    0.00070125
       204550   0.000701241
       204555   0.000701233
       204560   0.000701224
       204565   0.000701216
       204570   0.000701208
       204575   0.000701199
       204580   0.000701191
       204585   0.000701183
       204590   0.000701174
       204595   0.000701166
       204600   0.000701158
       204605   0.000701149
       204610   0.000701141
       204615   0.000701133
       204620   0.000701124
       204625   0.000701116
       204630   0.000701108
       204635   0.000701099
       204640   0.000701091
       204645   0.000701083
       204650   0.000701074
       204655   0.000701066
       204660   0.000701058
       204665   0.000701049
       204670   0.000701041
       204675   0.000701033
       204680   0.000701024
       204685   0.000701016
       204690   0.000701008
       204695   0.000700999
       204700   0.000700991
       204705   0.000700983
       204710   0.000700974
       204715   0.000700966
       204720   0.000700958
       204725   0.000700949
       204730   0.000700941
       204735   0.000700933
       204740   0.000700924
       204745   0.000700916
       204750   0.000700908
       204755   0.000700899
       204760   0.000700891
       204765   0.000700883
       204770   0.000700875
       204775   0.000700866
       204780   0.000700858
       204785    0.00070085
       204790   0.000700841
       204795   0.000700833
       204800   0.000700825
       204805   0.000700816
       204810   0.000700808
       204815     0.0007008
       204820   0.000700792
       204825   0.000700783
       204830   0.000700775
       204835   0.000700767
       204840   0.000700758
       204845    0.00070075
       204850   0.000700742
       204855   0.000700733
       204860   0.000700725
       204865   0.000700717
       204870   0.000700709
       204875     0.0007007
       204880   0.000700692
       204885   0.000700684
       204890   0.000700676
       204895   0.000700667
       204900   0.000700659
       204905   0.000700651
       204910   0.000700642
       204915   0.000700634
       204920   0.000700626
       204925   0.000700618
       204930   0.000700609
       204935   0.000700601
       204940   0.000700593
       204945   0.000700585
       204950   0.000700576
       204955   0.000700568
       204960    0.00070056
       204965   0.000700552
       204970   0.000700543
       204975   0.000700535
       204980   0.000700527
       204985   0.000700519
       204990    0.00070051
       204995   0.000700502
       205000   0.000700494
       205005   0.000700486
       205010   0.000700477
       205015   0.000700469
       205020   0.000700461
       205025   0.000700453
       205030   0.000700444
       205035   0.000700436
       205040   0.000700428
       205045    0.00070042
       205050   0.000700411
       205055   0.000700403
       205060   0.000700395
       205065   0.000700387
       205070   0.000700378
       205075    0.00070037
       205080   0.000700362
       205085   0.000700354
       205090   0.000700346
       205095   0.000700337
       205100   0.000700329
       205105   0.000700321
       205110   0.000700313
       205115   0.000700304
       205120   0.000700296
       205125   0.000700288
       205130    0.00070028
       205135   0.000700272
       205140   0.000700263
       205145   0.000700255
       205150   0.000700247
       205155   0.000700239
       205160    0.00070023
       205165   0.000700222
       205170   0.000700214
       205175   0.000700206
       205180   0.000700198
       205185   0.000700189
       205190   0.000700181
       205195   0.000700173
       205200   0.000700165
       205205   0.000700157
       205210   0.000700148
       205215    0.00070014
       205220   0.000700132
       205225   0.000700124
       205230   0.000700116
       205235   0.000700107
       205240   0.000700099
       205245   0.000700091
       205250   0.000700083
       205255   0.000700075
       205260   0.000700067
       205265   0.000700058
       205270    0.00070005
       205275   0.000700042
       205280   0.000700034
       205285   0.000700026
       205290   0.000700017
       205295   0.000700009
       205300   0.000700001
       205305   0.000699993
       205310   0.000699985
       205315   0.000699977
       205320   0.000699968
       205325    0.00069996
       205330   0.000699952
       205335   0.000699944
       205340   0.000699936