# Probe 0 (0.05 0.05 0.005)
#       Probe             0
#        Time
       200005   1.79429e-18
       200010   1.77126e-18
       200015   1.74851e-18
       200020   1.72606e-18
       200025   1.70388e-18
       200030   1.68199e-18
       200035   1.66038e-18
       200040   1.63904e-18
       200045   1.61797e-18
       200050   1.59717e-18
       200055   1.57663e-18
       200060   1.55635e-18
       200065   1.53632e-18
       200070   1.51655e-18
       200075   1.49704e-18
       200080   1.47777e-18
       200085   1.45874e-18
       200090   1.43996e-18
       200095   1.42141e-18
       200100    1.4031e-18
       200105   1.38502e-18
       200110   1.36717e-18
       200115   1.34955e-18
       200120   1.33215e-18
       200125   1.31497e-18
       200130   1.29801e-18
       200135   1.28127e-18
       200140   1.26474e-18
       200145   1.24842e-18
       200150   1.23231e-18
       200155    1.2164e-18
       200160   1.20069e-18
       200165   1.18519e-18
       200170   1.16988e-18
       200175   1.15476e-18
       200180   1.13984e-18
       200185   1.12511e-18
       200190   1.11057e-18
       200195   1.09621e-18
       200200   1.08203e-18
       200205   1.06804e-18
       200210   1.05422e-18
       200215   1.04058e-18
       200220   1.02711e-18
       200225   1.01382e-18
       200230    1.0007e-18
       200235   9.87738e-19
       200240   9.74945e-19
       200245   9.62316e-19
       200250   9.49848e-19
       200255    9.3754e-19
       200260   9.25388e-19
       200265   9.13392e-19
       200270   9.01549e-19
       200275   8.89858e-19
       200280   8.78315e-19
       200285   8.66921e-19
       200290   8.55672e-19
       200295   8.44567e-19
       200300   8.33604e-19
       200305   8.22781e-19
       200310   8.12096e-19
       200315   8.01549e-19
       200320   7.91136e-19
       200325   7.80857e-19
       200330   7.70709e-19
       200335   7.60692e-19
       200340   7.50802e-19
       200345    7.4104e-19
       200350   7.31402e-19
       200355   7.21888e-19
       200360   7.12496e-19
       200365   7.03224e-19
       200370   6.94072e-19
       200375   6.85036e-19
       200380   6.76117e-19
       200385   6.67312e-19
       200390    6.5862e-19
       200395    6.5004e-19
       200400    6.4157e-19
       200405   6.33208e-19
       200410   6.24954e-19
       200415   6.16807e-19
       200420   6.08763e-19
       200425   6.00823e-19
       200430   5.92986e-19
       200435   5.85249e-19
       200440   5.77611e-19
       200445   5.70072e-19
       200450    5.6263e-19
       200455   5.55283e-19
       200460   5.48031e-19
       200465   5.40873e-19
       200470   5.33806e-19
       200475   5.26831e-19
       200480   5.19945e-19
       200485   5.13148e-19
       200490   5.06439e-19
       200495   4.99816e-19
       200500   4.93278e-19
       200505   4.86825e-19
       200510   4.80455e-19
       200515   4.74167e-19
       200520   4.67961e-19
       200525   4.61834e-19
       200530   4.55786e-19
       200535   4.49817e-19
       200540   4.43924e-19
       200545   4.38108e-19
       200550   4.32367e-19
       200555     4.267e-19
       200560   4.21106e-19
       200565   4.15584e-19
       200570   4.10134e-19
       200575   4.04754e-19
       200580   3.99444e-19
       200585   3.94202e-19
       200590   3.89029e-19
       200595   3.83922e-19
       200600   3.78881e-19
       200605   3.73906e-19
       200610   3.68994e-19
       200615   3.64147e-19
       200620   3.59362e-19
       200625   3.54639e-19
       200630   3.49978e-19
       200635   3.45377e-19
       200640   3.40835e-19
       200645   3.36352e-19
       200650   3.31928e-19
       200655   3.27561e-19
       200660    3.2325e-19
       200665   3.18996e-19
       200670   3.14796e-19
       200675   3.10651e-19
       200680    3.0656e-19
       200685   3.02522e-19
       200690   2.98536e-19
       200695   2.94603e-19
       200700    2.9072e-19
       200705   2.86888e-19
       200710   2.83105e-19
       200715   2.79372e-19
       200720   2.75687e-19
       200725    2.7205e-19
       200730   2.68461e-19
       200735   2.64918e-19
       200740   2.61421e-19
       200745    2.5797e-19
       200750   2.54563e-19
       200755   2.51201e-19
       200760   2.47883e-19
       200765   2.44608e-19
       200770   2.41376e-19
       200775   2.38185e-19
       200780   2.35037e-19
       200785   2.31929e-19
       200790   2.28862e-19
       200795   2.25835e-19
       200800   2.22847e-19
       200805   2.19898e-19
       200810   2.16988e-19
       200815   2.14116e-19
       200820   2.11281e-19
       200825   2.08483e-19
       200830   2.05722e-19
       200835   2.02996e-19
       200840   2.00307e-19
       200845   1.97652e-19
       200850   1.95032e-19
       200855   1.92447e-19
       200860   1.89895e-19
       200865   1.87377e-19
       200870   1.84891e-19
       200875   1.82438e-19
       200880   1.80017e-19
       200885   1.77628e-19
       200890    1.7527e-19
       200895   1.72943e-19
       200900   1.70646e-19
       200905    1.6838e-19
       200910   1.66143e-19
       200915   1.63935e-19
       200920   1.61756e-19
       200925   1.59606e-19
       200930   1.57484e-19
       200935    1.5539e-19
       200940   1.53323e-19
       200945   1.51284e-19
       200950   1.49271e-19
       200955   1.47285e-19
       200960   1.45324e-19
       200965    1.4339e-19
       200970    1.4148e-19
       200975   1.39596e-19
       200980   1.37737e-19
       200985   1.35902e-19
       200990   1.34091e-19
       200995   1.32304e-19
       201000    1.3054e-19
       201005     1.288e-19
       201010   1.27082e-19
       201015   1.25387e-19
       201020   1.23714e-19
       201025   1.22064e-19
       201030   1.20435e-19
       201035   1.18827e-19
       201040   1.17241e-19
       201045   1.15675e-19
       201050    1.1413e-19
       201055   1.12606e-19
       201060   1.11101e-19
       201065   1.09617e-19
       201070   1.08151e-19
       201075   1.06706e-19
       201080   1.05279e-19
       201085   1.03871e-19
       201090   1.02482e-19
       201095   1.01111e-19
       201100   9.97577e-20
       201105   9.84226e-20
       201110   9.71052e-20
       201115   9.58051e-20
       201120   9.45222e-20
       201125   9.32562e-20
       201130   9.20069e-20
       201135   9.07742e-20
       201140   8.95577e-20
       201145   8.83573e-20
       201150   8.71728e-20
       201155   8.60039e-20
       201160   8.48505e-20
       201165   8.37123e-20
       201170   8.25892e-20
       201175    8.1481e-20
       201180   8.03874e-20
       201185   7.93083e-20
       201190   7.82434e-20
       201195   7.71927e-20
       201200   7.61559e-20
       201205   7.51328e-20
       201210   7.41233e-20
       201215   7.31271e-20
       201220   7.21442e-20
       201225   7.11743e-20
       201230   7.02172e-20
       201235   6.92728e-20
       201240    6.8341e-20
       201245   6.74215e-20
       201250   6.65142e-20
       201255    6.5619e-20
       201260   6.47356e-20
       201265    6.3864e-20
       201270   6.30039e-20
       201275   6.21553e-20
       201280   6.13179e-20
       201285   6.04917e-20
       201290   5.96764e-20
       201295    5.8872e-20
       201300   5.80782e-20
       201305   5.72951e-20
       201310   5.65223e-20
       201315   5.57598e-20
       201320   5.50075e-20
       201325   5.42651e-20
       201330   5.35327e-20
       201335     5.281e-20
       201340   5.20969e-20
       201345   5.13933e-20
       201350   5.06991e-20
       201355   5.00141e-20
       201360   4.93383e-20
       201365   4.86715e-20
       201370   4.80135e-20
       201375   4.73644e-20
       201380   4.67238e-20
       201385   4.60919e-20
       201390   4.54683e-20
       201395   4.48531e-20
       201400   4.42461e-20
       201405   4.36472e-20
       201410   4.30563e-20
       201415   4.24732e-20
       201420    4.1898e-20
       201425   4.13304e-20
       201430   4.07705e-20
       201435    4.0218e-20
       201440   3.96729e-20
       201445    3.9135e-20
       201450   3.86044e-20
       201455   3.80809e-20
       201460   3.75643e-20
       201465   3.70547e-20
       201470   3.65519e-20
       201475   3.60559e-20
       201480   3.55664e-20
       201485   3.50835e-20
       201490   3.46071e-20
       201495   3.41371e-20
       201500   3.36734e-20
       201505   3.32158e-20
       201510   3.27644e-20
       201515   3.23191e-20
       201520   3.18797e-20
       201525   3.14462e-20
       201530   3.10186e-20
       201535   3.05966e-20
       201540   3.01804e-20
       201545   2.97697e-20
       201550   2.93645e-20
       201555   2.89648e-20
       201560   2.85704e-20
       201565   2.81814e-20
       201570   2.77975e-20
       201575   2.74188e-20
       201580   2.70452e-20
       201585   2.66767e-20
       201590    2.6313e-20
       201595   2.59543e-20
       201600   2.56004e-20
       201605   2.52512e-20
       201610   2.49068e-20
       201615    2.4567e-20
       201620   2.42317e-20
       201625    2.3901e-20
       201630   2.35747e-20
       201635   2.32528e-20
       201640   2.29353e-20
       201645    2.2622e-20
       201650   2.23129e-20
       201655   2.20081e-20
       201660   2.17073e-20
       201665   2.14106e-20
       201670   2.11178e-20
       201675   2.08291e-20
       201680   2.05442e-20
       201685   2.02631e-20
       201690   1.99859e-20
       201695   1.97124e-20
       201700   1.94426e-20
       201705   1.91764e-20
       201710   1.89138e-20
       201715   1.86548e-20
       201720   1.83993e-20
       201725   1.81472e-20
       201730   1.78985e-20
       201735   1.76532e-20
       201740   1.74112e-20
       201745   1.71725e-20
       201750    1.6937e-20
       201755   1.67047e-20
       201760   1.64756e-20
       201765   1.62495e-20
       201770   1.60265e-20
       201775   1.58065e-20
       201780   1.55895e-20
       201785   1.53755e-20
       201790   1.51643e-20
       201795    1.4956e-20
       201800   1.47505e-20
       201805   1.45478e-20
       201810   1.43479e-20
       201815   1.41506e-20
       201820   1.39561e-20
       201825   1.37642e-20
       201830   1.35748e-20
       201835   1.33881e-20
       201840   1.32039e-20
       201845   1.30222e-20
       201850   1.28429e-20
       201855   1.26661e-20
       201860   1.24917e-20
       201865   1.23196e-20
       201870   1.21499e-20
       201875   1.19825e-20
       201880   1.18174e-20
       201885   1.16545e-20
       201890   1.14939e-20
       201895   1.13354e-20
       201900   1.11791e-20
       201905   1.10249e-20
       201910   1.08728e-20
       201915   1.07227e-20
       201920   1.05747e-20
       201925   1.04288e-20
       201930   1.02848e-20
       201935   1.01428e-20
       201940   1.00027e-20
       201945    9.8645e-21
       201950   9.72821e-21
       201955   9.59377e-21
       201960   9.46116e-21
       201965   9.33037e-21
       201970   9.20135e-21
       201975    9.0741e-21
       201980   8.94859e-21
       201985   8.82478e-21
       201990   8.70267e-21
       201995   8.58222e-21
       202000   8.46342e-21
       202005   8.34624e-21
       202010   8.23066e-21
       202015   8.11666e-21
       202020   8.00422e-21
       202025   7.89332e-21
       202030   7.78393e-21
       202035   7.67604e-21
       202040   7.56962e-21
       202045   7.46466e-21
       202050   7.36113e-21
       202055   7.25902e-21
       202060   7.15831e-21
       202065   7.05898e-21
       202070     6.961e-21
       202075   6.86437e-21
       202080   6.76906e-21
       202085   6.67506e-21
       202090   6.58235e-21
       202095    6.4909e-21
       202100   6.40071e-21
       202105   6.31176e-21
       202110   6.22403e-21
       202115    6.1375e-21
       202120   6.05215e-21
       202125   5.96798e-21
       202130   5.88496e-21
       202135   5.80308e-21
       202140   5.72233e-21
       202145   5.64268e-21
       202150   5.56413e-21
       202155   5.48666e-21
       202160   5.41025e-21
       202165   5.33489e-21
       202170   5.26057e-21
       202175   5.18727e-21
       202180   5.11497e-21
       202185   5.04367e-21
       202190   4.97336e-21
       202195   4.90401e-21
       202200   4.83561e-21
       202205   4.76815e-21
       202210   4.70163e-21
       202215   4.63601e-21
       202220   4.57131e-21
       202225   4.50749e-21
       202230   4.44455e-21
       202235   4.38248e-21
       202240   4.32127e-21
       202245    4.2609e-21
       202250   4.20136e-21
       202255   4.14264e-21
       202260   4.08473e-21
       202265   4.02762e-21
       202270    3.9713e-21
       202275   3.91576e-21
       202280   3.86098e-21
       202285   3.80696e-21
       202290   3.75368e-21
       202295   3.70114e-21
       202300   3.64933e-21
       202305   3.59823e-21
       202310   3.54783e-21
       202315   3.49814e-21
       202320   3.44913e-21
       202325    3.4008e-21
       202330   3.35313e-21
       202335   3.30613e-21
       202340   3.25978e-21
       202345   3.21406e-21
       202350   3.16898e-21
       202355   3.12453e-21
       202360   3.08069e-21
       202365   3.03745e-21
       202370   2.99482e-21
       202375   2.95277e-21
       202380   2.91131e-21
       202385   2.87042e-21
       202390    2.8301e-21
       202395   2.79034e-21
       202400   2.75113e-21
       202405   2.71247e-21
       202410   2.67433e-21
       202415   2.63673e-21
       202420   2.59965e-21
       202425   2.56309e-21
       202430   2.52703e-21
       202435   2.49147e-21
       202440   2.45641e-21
       202445   2.42184e-21
       202450   2.38774e-21
       202455   2.35412e-21
       202460   2.32096e-21
       202465   2.28827e-21
       202470   2.25603e-21
       202475   2.22424e-21
       202480   2.19289e-21
       202485   2.16197e-21
       202490   2.13149e-21
       202495   2.10143e-21
       202500   2.07179e-21
       202505   2.04256e-21
       202510   2.01374e-21
       202515   1.98532e-21
       202520    1.9573e-21
       202525   1.92967e-21
       202530   1.90242e-21
       202535   1.87555e-21
       202540   1.84906e-21
       202545   1.82293e-21
       202550   1.79717e-21
       202555   1.77177e-21
       202560   1.74672e-21
       202565   1.72202e-21
       202570   1.69767e-21
       202575   1.67366e-21
       202580   1.64998e-21
       202585   1.62663e-21
       202590   1.60361e-21
       202595   1.58091e-21
       202600   1.55853e-21
       202605   1.53646e-21
       202610    1.5147e-21
       202615   1.49324e-21
       202620   1.47209e-21
       202625   1.45123e-21
       202630   1.43066e-21
       202635   1.41037e-21
       202640   1.39038e-21
       202645   1.37066e-21
       202650   1.35122e-21
       202655   1.33205e-21
       202660   1.31315e-21
       202665   1.29451e-21
       202670   1.27613e-21
       202675   1.25802e-21
       202680   1.24015e-21
       202685   1.22254e-21
       202690   1.20517e-21
       202695   1.18805e-21
       202700   1.17116e-21
       202705   1.15452e-21
       202710    1.1381e-21
       202715   1.12192e-21
       202720   1.10597e-21
       202725   1.09024e-21
       202730   1.07472e-21
       202735   1.05943e-21
       202740   1.04435e-21
       202745   1.02949e-21
       202750   1.01483e-21
       202755   1.00038e-21
       202760   9.86131e-22
       202765   9.72083e-22
       202770   9.58232e-22
       202775   9.44577e-22
       202780   9.31113e-22
       202785   9.17839e-22
       202790   9.04752e-22
       202795   8.91849e-22
       202800   8.79127e-22
       202805   8.66585e-22
       202810   8.54219e-22
       202815   8.42028e-22
       202820   8.30008e-22
       202825   8.18157e-22
       202830   8.06474e-22
       202835   7.94955e-22
       202840   7.83599e-22
       202845   7.72403e-22
       202850   7.61365e-22
       202855   7.50482e-22
       202860   7.39753e-22
       202865   7.29175e-22
       202870   7.18747e-22
       202875   7.08466e-22
       202880    6.9833e-22
       202885   6.88337e-22
       202890   6.78486e-22
       202895   6.68773e-22
       202900   6.59198e-22
       202905   6.49758e-22
       202910   6.40452e-22
       202915   6.31277e-22
       202920   6.22232e-22
       202925   6.13315e-22
       202930   6.04524e-22
       202935   5.95857e-22
       202940   5.87313e-22
       202945    5.7889e-22
       202950   5.70586e-22
       202955     5.624e-22
       202960    5.5433e-22
       202965   5.46374e-22
       202970   5.38531e-22
       202975   5.30799e-22
       202980   5.23176e-22
       202985   5.15662e-22
       202990   5.08254e-22
       202995   5.00951e-22
       203000   4.93752e-22
       203005   4.86655e-22
       203010   4.79658e-22
       203015   4.72761e-22
       203020   4.65962e-22
       203025    4.5926e-22
       203030   4.52652e-22
       203035   4.46138e-22
       203040   4.39717e-22
       203045   4.33388e-22
       203050   4.27148e-22
       203055   4.20996e-22
       203060   4.14933e-22
       203065   4.08955e-22
       203070   4.03063e-22
       203075   3.97254e-22
       203080   3.91528e-22
       203085   3.85883e-22
       203090   3.80319e-22
       203095   3.74834e-22
       203100   3.69427e-22
       203105   3.64097e-22
       203110   3.58843e-22
       203115   3.53664e-22
       203120   3.48559e-22
       203125   3.43526e-22
       203130   3.38565e-22
       203135   3.33675e-22
       203140   3.28855e-22
       203145   3.24103e-22
       203150   3.19419e-22
       203155   3.14802e-22
       203160   3.10251e-22
       203165   3.05765e-22
       203170   3.01343e-22
       203175   2.96984e-22
       203180   2.92687e-22
       203185   2.88452e-22
       203190   2.84277e-22
       203195   2.80162e-22
       203200   2.76105e-22
       203205   2.72107e-22
       203210   2.68166e-22
       203215   2.64281e-22
       203220   2.60452e-22
       203225   2.56677e-22
       203230   2.52957e-22
       203235   2.49289e-22
       203240   2.45675e-22
       203245   2.42112e-22
       203250     2.386e-22
       203255   2.35138e-22
       203260   2.31726e-22
       203265   2.28363e-22
       203270   2.25047e-22
       203275    2.2178e-22
       203280   2.18559e-22
       203285   2.15385e-22
       203290   2.12256e-22
       203295   2.09172e-22
       203300   2.06132e-22
       203305   2.03136e-22
       203310   2.00182e-22
       203315   1.97272e-22
       203320   1.94403e-22
       203325   1.91575e-22
       203330   1.88788e-22
       203335    1.8604e-22
       203340   1.83333e-22
       203345   1.80664e-22
       203350   1.78033e-22
       203355   1.75441e-22
       203360   1.72885e-22
       203365   1.70367e-22
       203370   1.67885e-22
       203375   1.65438e-22
       203380   1.63026e-22
       203385    1.6065e-22
       203390   1.58307e-22
       203395   1.55998e-22
       203400   1.53723e-22
       203405    1.5148e-22
       203410    1.4927e-22
       203415   1.47091e-22
       203420   1.44944e-22
       203425   1.42828e-22
       203430   1.40742e-22
       203435   1.38686e-22
       203440    1.3666e-22
       203445   1.34663e-22
       203450   1.32695e-22
       203455   1.30756e-22
       203460   1.28844e-22
       203465    1.2696e-22
       203470   1.25103e-22
       203475   1.23273e-22
       203480    1.2147e-22
       203485   1.19692e-22
       203490   1.17941e-22
       203495   1.16214e-22
       203500   1.14513e-22
       203505   1.12836e-22
       203510   1.11183e-22
       203515   1.09554e-22
       203520   1.07949e-22
       203525   1.06367e-22
       203530   1.04808e-22
       203535   1.03271e-22
       203540   1.01757e-22
       203545   1.00265e-22
       203550    9.8794e-23
       203555   9.73446e-23
       203560   9.59162e-23
       203565   9.45084e-23
       203570   9.31211e-23
       203575   9.17539e-23
       203580   9.04065e-23
       203585   8.90786e-23
       203590     8.777e-23
       203595   8.64804e-23
       203600   8.52095e-23
       203605    8.3957e-23
       203610   8.27228e-23
       203615   8.15064e-23
       203620   8.03077e-23
       203625   7.91264e-23
       203630   7.79623e-23
       203635   7.68151e-23
       203640   7.56845e-23
       203645   7.45704e-23
       203650   7.34725e-23
       203655   7.23906e-23
       203660   7.13243e-23
       203665   7.02736e-23
       203670   6.92382e-23
       203675   6.82179e-23
       203680   6.72124e-23
       203685   6.62215e-23
       203690    6.5245e-23
       203695   6.42828e-23
       203700   6.33346e-23
       203705   6.24002e-23
       203710   6.14794e-23
       203715   6.05721e-23
       203720    5.9678e-23
       203725   5.87969e-23
       203730   5.79286e-23
       203735    5.7073e-23
       203740   5.62299e-23
       203745   5.53991e-23
       203750   5.45804e-23
       203755   5.37737e-23
       203760   5.29787e-23
       203765   5.21954e-23
       203770   5.14234e-23
       203775   5.06628e-23
       203780   4.99133e-23
       203785   4.91747e-23
       203790   4.84469e-23
       203795   4.77298e-23
       203800   4.70231e-23
       203805   4.63268e-23
       203810   4.56407e-23
       203815   4.49645e-23
       203820   4.42983e-23
       203825   4.36419e-23
       203830    4.2995e-23
       203835   4.23576e-23
       203840   4.17296e-23
       203845   4.11107e-23
       203850   4.05009e-23
       203855   3.99001e-23
       203860    3.9308e-23
       203865   3.87246e-23
       203870   3.81498e-23
       203875   3.75834e-23
       203880   3.70253e-23
       203885   3.64754e-23
       203890   3.59336e-23
       203895   3.53997e-23
       203900   3.48736e-23
       203905   3.43553e-23
       203910   3.38446e-23
       203915   3.33414e-23
       203920   3.28455e-23
       203925    3.2357e-23
       203930   3.18756e-23
       203935   3.14013e-23
       203940    3.0934e-23
       203945   3.04735e-23
       203950   3.00198e-23
       203955   2.95728e-23
       203960   2.91324e-23
       203965   2.86984e-23
       203970   2.82708e-23
       203975   2.78495e-23
       203980   2.74344e-23
       203985   2.70255e-23
       203990   2.66225e-23
       203995   2.62255e-23
       204000   2.58343e-23
       204005   2.54489e-23
       204010   2.50692e-23
       204015   2.46951e-23
       204020   2.43264e-23
       204025   2.39633e-23
       204030   2.36054e-23
       204035   2.32529e-23
       204040   2.29055e-23
       204045   2.25633e-23
       204050   2.22262e-23
       204055    2.1894e-23
       204060   2.15667e-23
       204065   2.12442e-23
       204070   2.09265e-23
       204075   2.06135e-23
       204080   2.03052e-23
       204085   2.00013e-23
       204090    1.9702e-23
       204095   1.94071e-23
       204100   1.91166e-23
       204105   1.88303e-23
       204110   1.85483e-23
       204115   1.82705e-23
       204120   1.79967e-23
       204125    1.7727e-23
       204130   1.74614e-23
       204135   1.71996e-23
       204140   1.69417e-23
       204145   1.66877e-23
       204150   1.64374e-23
       204155   1.61908e-23
       204160   1.59479e-23
       204165   1.57085e-23
       204170   1.54728e-23
       204175   1.52405e-23
       204180   1.50116e-23
       204185   1.47862e-23
       204190   1.45641e-23
       204195   1.43453e-23
       204200   1.41297e-23
       204205   1.39174e-23
       204210   1.37081e-23
       204215    1.3502e-23
       204220    1.3299e-23
       204225    1.3099e-23
       204230   1.29019e-23
       204235   1.27078e-23
       204240   1.25166e-23
       204245   1.23282e-23
       204250   1.21426e-23
       204255   1.19598e-23
       204260   1.17796e-23
       204265   1.16022e-23
       204270   1.14274e-23
       204275   1.12552e-23
       204280   1.10856e-23
       204285   1.09185e-23
       204290   1.07539e-23
       204295   1.05917e-23
       204300    1.0432e-23
       204305   1.02746e-23
       204310   1.01196e-23
       204315   9.96688e-24
       204320   9.81644e-24
       204325   9.66825e-24
       204330   9.52227e-24
       204335   9.37847e-24
       204340   9.23681e-24
       204345   9.09727e-24
       204350   8.95981e-24
       204355    8.8244e-24
       204360   8.69101e-24
       204365   8.55962e-24
       204370   8.43019e-24
       204375   8.30269e-24
       204380   8.17709e-24
       204385   8.05338e-24
       204390   7.93151e-24
       204395   7.81146e-24
       204400   7.69321e-24
       204405   7.57673e-24
       204410   7.46199e-24
       204415   7.34897e-24
       204420   7.23764e-24
       204425   7.12797e-24
       204430   7.01995e-24
       204435   6.91355e-24
       204440   6.80873e-24
       204445   6.70549e-24
       204450   6.60379e-24
       204455   6.50362e-24
       204460   6.40495e-24
       204465   6.30776e-24
       204470   6.21203e-24
       204475   6.11773e-24
       204480   6.02484e-24
       204485   5.93335e-24
       204490   5.84323e-24
       204495   5.75447e-24
       204500   5.66703e-24
       204505   5.58091e-24
       204510   5.49608e-24
       204515   5.41253e-24
       204520   5.33023e-24
       204525   5.24917e-24
       204530   5.16932e-24
       204535   5.09068e-24
       204540   5.01322e-24
       204545   4.93692e-24
       204550   4.86177e-24
       204555   4.78775e-24
       204560   4.71484e-24
       204565   4.64303e-24
       204570    4.5723e-24
       204575   4.50264e-24
       204580   4.43402e-24
       204585   4.36644e-24
       204590   4.29988e-24
       204595   4.23431e-24
       204600   4.16974e-24
       204605   4.10614e-24
       204610    4.0435e-24
       204615    3.9818e-24
       204620   3.92103e-24
       204625   3.86118e-24
       204630   3.80223e-24
       204635   3.74417e-24
       204640   3.68698e-24
       204645   3.63066e-24
       204650   3.57519e-24
       204655   3.52056e-24
       204660   3.46675e-24
       204665   3.41375e-24
       204670   3.36156e-24
       204675   3.31015e-24
       204680   3.25952e-24
       204685   3.20966e-24
       204690   3.16055e-24
       204695   3.11218e-24
       204700   3.06454e-24
       204705   3.01763e-24
       204710   2.97142e-24
       204715   2.92591e-24
       204720   2.88109e-24
       204725   2.83695e-24
       204730   2.79348e-24
       204735   2.75067e-24
       204740    2.7085e-24
       204745   2.66697e-24
       204750   2.62608e-24
       204755    2.5858e-24
       204760   2.54613e-24
       204765   2.50707e-24
       204770   2.46859e-24
       204775    2.4307e-24
       204780   2.39339e-24
       204785   2.35664e-24
       204790   2.32044e-24
       204795    2.2848e-24
       204800    2.2497e-24
       204805   2.21513e-24
       204810   2.18109e-24
       204815   2.14756e-24
       204820   2.11454e-24
       204825   2.08203e-24
       204830      2.05e-24
       204835   2.01847e-24
       204840   1.98741e-24
       204845   1.95683e-24
       204850   1.92671e-24
       204855   1.89705e-24
       204860   1.86784e-24
       204865   1.83908e-24
       204870   1.81075e-24
       204875   1.78285e-24
       204880   1.75538e-24
       204885   1.72833e-24
       204890   1.70169e-24
       204895   1.67546e-24
       204900   1.64962e-24
       204905   1.62418e-24
       204910   1.59912e-24
       204915   1.57445e-24
       204920   1.55016e-24
       204925   1.52623e-24
       204930   1.50267e-24
       204935   1.47947e-24
       204940   1.45662e-24
       204945   1.43413e-24
       204950   1.41197e-24
       204955   1.39015e-24
       204960   1.36867e-24
       204965   1.34752e-24
       204970   1.32668e-24
       204975   1.30617e-24
       204980   1.28597e-24
       204985   1.26608e-24
       204990   1.24649e-24
       204995    1.2272e-24
       205000   1.20821e-24
       205005   1.18951e-24
       205010   1.17109e-24
       205015   1.15296e-24
       205020    1.1351e-24
       205025   1.11752e-24
       205030    1.1002e-24
       205035   1.08315e-24
       205040   1.06636e-24
       205045   1.04983e-24
       205050   1.03355e-24
       205055   1.01753e-24
       205060   1.00174e-24
       205065   9.86203e-25
       205070     9.709e-25
       205075   9.55832e-25
       205080   9.40996e-25
       205085   9.26386e-25
       205090   9.12001e-25
       205095   8.97837e-25
       205100   8.83891e-25
       205105   8.70158e-25
       205110   8.56636e-25
       205115   8.43322e-25
       205120   8.30213e-25
       205125   8.17304e-25
       205130   8.04595e-25
       205135    7.9208e-25
       205140   7.79758e-25
       205145   7.67626e-25
       205150    7.5568e-25
       205155   7.43917e-25
       205160   7.32336e-25
       205165   7.20933e-25
       205170   7.09705e-25
       205175    6.9865e-25
       205180   6.87766e-25
       205185   6.77049e-25
       205190   6.66497e-25
       205195   6.56108e-25
       205200   6.45878e-25
       205205   6.35807e-25
       205210    6.2589e-25
       205215   6.16127e-25
       205220   6.06513e-25
       205225   5.97049e-25
       205230    5.8773e-25
       205235   5.78555e-25
       205240   5.69521e-25
       205245   5.60627e-25
       205250   5.51871e-25
       205255   5.43249e-25
       205260   5.34761e-25
       205265   5.26403e-25
       205270   5.18175e-25
       205275   5.10074e-25
       205280   5.02098e-25
       205285   4.94245e-25
       205290   4.86514e-25
       205295   4.78902e-25
       205300   4.71408e-25
       205305    4.6403e-25
       205310   4.56766e-25
       205315   4.49615e-25
       205320   4.42574e-25
       205325   4.35642e-25
       205330   4.28817e-25
       205335   4.22099e-25
       205340   4.15484e-25