# Probe 0 (0.05 0.05 0.005)
#       Probe             0
#        Time
       200005      0.107018
       200010      0.107006
       200015      0.106993
       200020      0.106981
       200025      0.106968
       200030      0.106956
       200035      0.106943
       200040      0.106931
       200045      0.106918
       200050      0.106906
       200055      0.106893
       200060      0.106881
       200065      0.106868
       200070      0.106856
       200075      0.106843
       200080      0.106831
       200085      0.106818
       200090      0.106806
       200095      0.106793
       200100      0.106781
       200105      0.106768
       200110      0.106756
       200115      0.106743
       200120      0.106731
       200125      0.106718
       200130      0.106706
       200135      0.106693
       200140      0.106681
       200145      0.106668
       200150      0.106656
       200155      0.106644
       200160      0.106631
       200165      0.106619
       200170      0.106606
       200175      0.106594
       200180      0.106581
       200185      0.106569
       200190      0.106556
       200195      0.106544
       200200      0.106531
       200205      0.106519
       200210      0.106506
       200215      0.106494
       200220      0.106482
       200225      0.106469
       200230      0.106457
       200235      0.106444
       200240      0.106432
       200245      0.106419
       200250      0.106407
       200255      0.106395
       200260      0.106382
       200265       0.10637
       200270      0.106357
       200275      0.106345
       200280      0.106332
       200285       0.10632
       200290      0.106308
       200295      0.106295
       200300      0.106283
       200305       0.10627
       200310      0.106258
       200315      0.106246
       200320      0.106233
       200325      0.106221
       200330      0.106208
       200335      0.106196
       200340      0.106184
       200345      0.106171
       200350      0.106159
       200355      0.106146
       200360      0.106134
       200365      0.106122
       200370      0.106109
       200375      0.106097
       200380      0.106084
       200385      0.106072
       200390       0.10606
       200395      0.106047
       200400      0.106035
       200405      0.106022
       200410       0.10601
       200415      0.105998
       200420      0.105985
       200425      0.105973
       200430      0.105961
       200435      0.105948
       200440      0.105936
       200445      0.105924
       200450      0.105911
       200455      0.105899
       200460      0.105886
       200465      0.105874
       200470      0.105862
       200475      0.105849
       200480      0.105837
       200485      0.105825
       200490      0.105812
       200495        0.1058
       200500      0.105788
       200505      0.105775
       200510      0.105763
       200515      0.105751
       200520      0.105738
       200525      0.105726
       200530      0.105714
       200535      0.105701
       200540      0.105689
       200545      0.105677
       200550      0.105664
       200555      0.105652
       200560       0.10564
       200565      0.105627
       200570      0.105615
       200575      0.105603
       200580      0.105591
       200585      0.105578
       200590      0.105566
       200595      0.105554
       200600      0.105541
       200605      0.105529
       200610      0.105517
       200615      0.105504
       200620      0.105492
       200625       0.10548
       200630      0.105468
       200635      0.105455
       200640      0.105443
       200645      0.105431
       200650      0.105418
       200655      0.105406
       200660      0.105394
       200665      0.105382
       200670      0.105369
       200675      0.105357
       200680      0.105345
       200685      0.105333
       200690       0.10532
       200695      0.105308
       200700      0.105296
       200705      0.105283
       200710      0.105271
       200715      0.105259
       200720      0.105247
       200725      0.105234
       200730      0.105222
       200735       0.10521
       200740      0.105198
       200745      0.105185
       200750      0.105173
       200755      0.105161
       200760      0.105149
       200765      0.105136
       200770      0.105124
       200775      0.105112
       200780        0.1051
       200785      0.105088
       200790      0.105075
       200795      0.105063
       200800      0.105051
       200805      0.105039
       200810      0.105026
       200815      0.105014
       200820      0.105002
       200825       0.10499
       200830      0.104978
       200835      0.104965
       200840      0.104953
       200845      0.104941
       200850      0.104929
       200855      0.104916
       200860      0.104904
       200865      0.104892
       200870       0.10488
       200875      0.104868
       200880      0.104855
       200885      0.104843
       200890      0.104831
       200895      0.104819
       200900      0.104807
       200905      0.104795
       200910      0.104782
       200915       0.10477
       200920      0.104758
       200925      0.104746
       200930      0.104734
       200935      0.104721
       200940      0.104709
       200945      0.104697
       200950      0.104685
       200955      0.104673
       200960      0.104661
       200965      0.104648
       200970      0.104636
       200975      0.104624
       200980      0.104612
       200985        0.1046
       200990      0.104588
       200995      0.104575
       201000      0.104563
       201005      0.104551
       201010      0.104539
       201015      0.104527
       201020      0.104515
       201025      0.104503
       201030       0.10449
       201035      0.104478
       201040      0.104466
       201045      0.104454
       201050      0.104442
       201055       0.10443
       201060      0.104418
       201065      0.104405
       201070      0.104393
       201075      0.104381
       201080      0.104369
       201085      0.104357
       201090      0.104345
       201095      0.104333
       201100      0.104321
       201105      0.104309
       201110      0.104296
       201115      0.104284
       201120      0.104272
       201125       0.10426
       201130      0.104248
       201135      0.104236
       201140      0.104224
       201145      0.104212
       201150        0.1042
       201155      0.104188
       201160      0.104175
       201165      0.104163
       201170      0.104151
       201175      0.104139
       201180      0.104127
       201185      0.104115
       201190      0.104103
       201195      0.104091
       201200      0.104079
       201205      0.104067
       201210      0.104055
       201215      0.104043
       201220       0.10403
       201225      0.104018
       201230      0.104006
       201235      0.103994
       201240      0.103982
       201245       0.10397
       201250      0.103958
       201255      0.103946
       201260      0.103934
       201265      0.103922
       201270       0.10391
       201275      0.103898
       201280      0.103886
       201285      0.103874
       201290      0.103862
       201295       0.10385
       201300      0.103838
       201305      0.103826
       201310      0.103813
       201315      0.103801
       201320      0.103789
       201325      0.103777
       201330      0.103765
       201335      0.103753
       201340      0.103741
       201345      0.103729
       201350      0.103717
       201355      0.103705
       201360      0.103693
       201365      0.103681
       201370      0.103669
       201375      0.103657
       201380      0.103645
       201385      0.103633
       201390      0.103621
       201395      0.103609
       201400      0.103597
       201405      0.103585
       201410      0.103573
       201415      0.103561
       201420      0.103549
       201425      0.103537
       201430      0.103525
       201435      0.103513
       201440      0.103501
       201445      0.103489
       201450      0.103477
       201455      0.103465
       201460      0.103453
       201465      0.103441
       201470      0.103429
       201475      0.103417
       201480      0.103405
       201485      0.103393
       201490      0.103381
       201495      0.103369
       201500      0.103357
       201505      0.103345
       201510      0.103333
       201515      0.103321
       201520       0.10331
       201525      0.103298
       201530      0.103286
       201535      0.103274
       201540      0.103262
       201545       0.10325
       201550      0.103238
       201555      0.103226
       201560      0.103214
       201565      0.103202
       201570       0.10319
       201575      0.103178
       201580      0.103166
       201585      0.103154
       201590      0.103142
       201595       0.10313
       201600      0.103118
       201605      0.103106
       201610      0.103095
       201615      0.103083
       201620      0.103071
       201625      0.103059
       201630      0.103047
       201635      0.103035
       201640      0.103023
       201645      0.103011
       201650      0.102999
       201655      0.102987
       201660      0.102975
       201665      0.102963
       201670      0.102952
       201675       0.10294
       201680      0.102928
       201685      0.102916
       201690      0.102904
       201695      0.102892
       201700       0.10288
       201705      0.102868
       201710      0.102856
       201715      0.102844
       201720      0.102833
       201725      0.102821
       201730      0.102809
       201735      0.102797
       201740      0.102785
       201745      0.102773
       201750      0.102761
       201755      0.102749
       201760      0.102738
       201765      0.102726
       201770      0.102714
       201775      0.102702
       201780       0.10269
       201785      0.102678
       201790      0.102666
       201795      0.102654
       201800      0.102643
       201805      0.102631
       201810      0.102619
       201815      0.102607
       201820      0.102595
       201825      0.102583
       201830      0.102571
       201835       0.10256
       201840      0.102548
       201845      0.102536
       201850      0.102524
       201855      0.102512
       201860        0.1025
       201865      0.102489
       201870      0.102477
       201875      0.102465
       201880      0.102453
       201885      0.102441
       201890      0.102429
       201895      0.102418
       201900      0.102406
       201905      0.102394
       201910      0.102382
       201915       0.10237
       201920      0.102358
       201925      0.102347
       201930      0.102335
       201935      0.102323
       201940      0.102311
       201945      0.102299
       201950      0.102288
       201955      0.102276
       201960      0.102264
       201965      0.102252
       201970       0.10224
       201975      0.102229
       201980      0.102217
       201985      0.102205
       201990      0.102193
       201995      0.102181
       202000       0.10217
       202005      0.102158
       202010      0.102146
       202015      0.102134
       202020      0.102123
       202025      0.102111
       202030      0.102099
       202035      0.102087
       202040      0.102075
       202045      0.102064
       202050      0.102052
       202055       0.10204
       202060      0.102028
       202065      0.102017
       202070      0.102005
       202075      0.101993
       202080      0.101981
       202085       0.10197
       202090      0.101958
       202095      0.101946
       202100      0.101934
       202105      0.101922
       202110      0.101911
       202115      0.101899
       202120      0.101887
       202125      0.101876
       202130      0.101864
       202135      0.101852
       202140       0.10184
       202145      0.101829
       202150      0.101817
       202155      0.101805
       202160      0.101793
       202165      0.101782
       202170       0.10177
       202175      0.101758
       202180      0.101746
       202185      0.101735
       202190      0.101723
       202195      0.101711
       202200        0.1017
       202205      0.101688
       202210      0.101676
       202215      0.101664
       202220      0.101653
       202225      0.101641
       202230      0.101629
       202235      0.101618
       202240      0.101606
       202245      0.101594
       202250      0.101582
       202255      0.101571
       202260      0.101559
       202265      0.101547
       202270      0.101536
       202275      0.101524
       202280      0.101512
       202285      0.101501
       202290      0.101489
       202295      0.101477
       202300      0.101466
       202305      0.101454
       202310      0.101442
       202315      0.101431
       202320      0.101419
       202325      0.101407
       202330      0.101396
       202335      0.101384
       202340      0.101372
       202345      0.101361
       202350      0.101349
       202355      0.101337
       202360      0.101326
       202365      0.101314
       202370      0.101302
       202375      0.101291
       202380      0.101279
       202385      0.101267
       202390      0.101256
       202395      0.101244
       202400      0.101232
       202405      0.101221
       202410      0.101209
       202415      0.101197
       202420      0.101186
       202425      0.101174
       202430      0.101162
       202435      0.101151
       202440      0.101139
       202445      0.101128
       202450      0.101116
       202455      0.101104
       202460      0.101093
       202465      0.101081
       202470      0.101069
       202475      0.101058
       202480      0.101046
       202485      0.101035
       202490      0.101023
       202495      0.101011
       202500         0.101
       202505      0.100988
       202510      0.100976
       202515      0.100965
       202520      0.100953
       202525      0.100942
       202530       0.10093
       202535      0.100918
       202540      0.100907
       202545      0.100895
       202550      0.100884
       202555      0.100872
       202560      0.100861
       202565      0.100849
       202570      0.100837
       202575      0.100826
       202580      0.100814
       202585      0.100803
       202590      0.100791
       202595      0.100779
       202600      0.100768
       202605      0.100756
       202610      0.100745
       202615      0.100733
       202620      0.100722
       202625       0.10071
       202630      0.100698
       202635      0.100687
       202640      0.100675
       202645      0.100664
       202650      0.100652
       202655      0.100641
       202660      0.100629
       202665      0.100618
       202670      0.100606
       202675      0.100594
       202680      0.100583
       202685      0.100571
       202690       0.10056
       202695      0.100548
       202700      0.100537
       202705      0.100525
       202710      0.100514
       202715      0.100502
       202720      0.100491
       202725      0.100479
       202730      0.100467
       202735      0.100456
       202740      0.100444
       202745      0.100433
       202750      0.100421
       202755       0.10041
       202760      0.100398
       202765      0.100387
       202770      0.100375
       202775      0.100364
       202780      0.100352
       202785      0.100341
       202790      0.100329
       202795      0.100318
       202800      0.100306
       202805      0.100295
       202810      0.100283
       202815      0.100272
       202820       0.10026
       202825      0.100249
       202830      0.100237
       202835      0.100226
       202840      0.100214
       202845      0.100203
       202850      0.100191
       202855       0.10018
       202860      0.100168
       202865      0.100157
       202870      0.100145
       202875      0.100134
       202880      0.100122
       202885      0.100111
       202890      0.100099
       202895      0.100088
       202900      0.100076
       202905      0.100065
       202910      0.100053
       202915      0.100042
       202920      0.100031
       202925      0.100019
       202930      0.100008
       202935     0.0999961
       202940     0.0999847
       202945     0.0999732
       202950     0.0999618
       202955     0.0999503
       202960     0.0999389
       202965     0.0999274
       202970      0.099916
       202975     0.0999045
       202980     0.0998931
       202985     0.0998816
       202990     0.0998702
       202995     0.0998587
       203000     0.0998473
       203005     0.0998359
       203010     0.0998244
       203015      0.099813
       203020     0.0998016
       203025     0.0997901
       203030     0.0997787
       203035     0.0997673
       203040     0.0997559
       203045     0.0997444
       203050      0.099733
       203055     0.0997216
       203060     0.0997102
       203065     0.0996988
       203070     0.0996873
       203075     0.0996759
       203080     0.0996645
       203085     0.0996531
       203090     0.0996417
       203095     0.0996303
       203100     0.0996189
       203105     0.0996075
       203110     0.0995961
       203115     0.0995847
       203120     0.0995733
       203125     0.0995619
       203130     0.0995505
       203135     0.0995391
       203140     0.0995277
       203145     0.0995163
       203150     0.0995049
       203155     0.0994936
       203160     0.0994822
       203165     0.0994708
       203170     0.0994594
       203175      0.099448
       203180     0.0994367
       203185     0.0994253
       203190     0.0994139
       203195     0.0994025
       203200     0.0993912
       203205     0.0993798
       203210     0.0993684
       203215     0.0993571
       203220     0.0993457
       203225     0.0993343
       203230      0.099323
       203235     0.0993116
       203240     0.0993003
       203245     0.0992889
       203250     0.0992776
       203255     0.0992662
       203260     0.0992549
       203265     0.0992435
       203270     0.0992322
       203275     0.0992208
       203280     0.0992095
       203285     0.0991981
       203290     0.0991868
       203295     0.0991755
       203300     0.0991641
       203305     0.0991528
       203310     0.0991414
       203315     0.0991301
       203320     0.0991188
       203325     0.0991075
       203330     0.0990961
       203335     0.0990848
       203340     0.0990735
       203345     0.0990622
       203350     0.0990508
       203355     0.0990395
       203360     0.0990282
       203365     0.0990169
       203370     0.0990056
       203375     0.0989943
       203380      0.098983
       203385     0.0989717
       203390     0.0989604
       203395     0.0989491
       203400     0.0989378
       203405     0.0989265
       203410     0.0989152
       203415     0.0989039
       203420     0.0988926
       203425     0.0988813
       203430       0.09887
       203435     0.0988587
       203440     0.0988474
       203445     0.0988361
       203450     0.0988248
       203455     0.0988135
       203460     0.0988023
       203465      0.098791
       203470     0.0987797
       203475     0.0987684
       203480     0.0987571
       203485     0.0987459
       203490     0.0987346
       203495     0.0987233
       203500     0.0987121
       203505     0.0987008
       203510     0.0986895
       203515     0.0986783
       203520      0.098667
       203525     0.0986557
       203530     0.0986445
       203535     0.0986332
       203540      0.098622
       203545     0.0986107
       203550     0.0985995
       203555     0.0985882
       203560      0.098577
       203565     0.0985657
       203570     0.0985545
       203575     0.0985432
       203580      0.098532
       203585     0.0985208
       203590     0.0985095
       203595     0.0984983
       203600     0.0984871
       203605     0.0984758
       203610     0.0984646
       203615     0.0984534
       203620     0.0984421
       203625     0.0984309
       203630     0.0984197
       203635     0.0984085
       203640     0.0983972
       203645      0.098386
       203650     0.0983748
       203655     0.0983636
       203660     0.0983524
       203665     0.0983412
       203670     0.0983299
       203675     0.0983187
       203680     0.0983075
       203685     0.0982963
       203690     0.0982851
       203695     0.0982739
       203700     0.0982627
       203705     0.0982515
       203710     0.0982403
       203715     0.0982291
       203720     0.0982179
       203725     0.0982067
       203730     0.0981955
       203735     0.0981844
       203740     0.0981732
       203745      0.098162
       203750     0.0981508
       203755     0.0981396
       203760     0.0981284
       203765     0.0981173
       203770     0.0981061
       203775     0.0980949
       203780     0.0980837
       203785     0.0980726
       203790     0.0980614
       203795     0.0980502
       203800      0.098039
       203805     0.0980279
       203810     0.0980167
       203815     0.0980055
       203820     0.0979944
       203825     0.0979832
       203830     0.0979721
       203835     0.0979609
       203840     0.0979498
       203845     0.0979386
       203850     0.0979275
       203855     0.0979163
       203860     0.0979052
       203865      0.097894
       203870     0.0978829
       203875     0.0978717
       203880     0.0978606
       203885     0.0978494
       203890     0.0978383
       203895     0.0978272
       203900      0.097816
       203905     0.0978049
       203910     0.0977938
       203915     0.0977826
       203920     0.0977715
       203925     0.0977604
       203930     0.0977493
       203935     0.0977381
       203940      0.097727
       203945     0.0977159
       203950     0.0977048
       203955     0.0976937
       203960     0.0976826
       203965     0.0976714
       203970     0.0976603
       203975     0.0976492
       203980     0.0976381
       203985      0.097627
       203990     0.0976159
       203995     0.0976048
       204000     0.0975937
       204005     0.0975826
       204010     0.0975715
       204015     0.0975604
       204020     0.0975493
       204025     0.0975382
       204030     0.0975271
       204035      0.097516
       204040      0.097505
       204045     0.0974939
       204050     0.0974828
       204055     0.0974717
       204060     0.0974606
       204065     0.0974495
       204070     0.0974385
       204075     0.0974274
       204080     0.0974163
       204085     0.0974052
       204090     0.0973942
       204095     0.0973831
       204100      0.097372
       204105      0.097361
       204110     0.0973499
       204115     0.0973388
       204120     0.0973278
       204125     0.0973167
       204130     0.0973057
       204135     0.0972946
       204140     0.0972835
       204145     0.0972725
       204150     0.0972614
       204155     0.0972504
       204160     0.0972393
       204165     0.0972283
       204170     0.0972172
       204175     0.0972062
       204180     0.0971952
       204185     0.0971841
       204190     0.0971731
       204195      0.097162
       204200      0.097151
       204205       0.09714
       204210     0.0971289
       204215     0.0971179
       204220     0.0971069
       204225     0.0970959
       204230     0.0970848
       204235     0.0970738
       204240     0.0970628
       204245     0.0970518
       204250     0.0970408
       204255     0.0970297
       204260     0.0970187
       204265     0.0970077
       204270     0.0969967
       204275     0.0969857
       204280     0.0969747
       204285     0.0969637
       204290     0.0969527
       204295     0.0969417
       204300     0.0969307
       204305     0.0969197
       204310     0.0969087
       204315     0.0968977
       204320     0.0968867
       204325     0.0968757
       204330     0.0968647
       204335     0.0968537
       204340     0.0968427
       204345     0.0968317
       204350     0.0968207
       204355     0.0968097
       204360     0.0967988
       204365     0.0967878
       204370     0.0967768
       204375     0.0967658
       204380     0.0967548
       204385     0.0967439
       204390     0.0967329
       204395     0.0967219
       204400      0.096711
       204405        0.0967
       204410      0.096689
       204415     0.0966781
       204420     0.0966671
       204425     0.0966561
       204430     0.0966452
       204435     0.0966342
       204440     0.0966233
       204445     0.0966123
       204450     0.0966014
       204455     0.0965904
       204460     0.0965794
       204465     0.0965685
       204470     0.0965576
       204475     0.0965466
       204480     0.0965357
       204485     0.0965247
       204490     0.0965138
       204495     0.0965028
       204500     0.0964919
       204505      0.096481
       204510       0.09647
       204515     0.0964591
       204520     0.0964482
       204525     0.0964372
       204530     0.0964263
       204535     0.0964154
       204540     0.0964045
       204545     0.0963935
       204550     0.0963826
       204555     0.0963717
       204560     0.0963608
       204565     0.0963499
       204570      0.096339
       204575      0.096328
       204580     0.0963171
       204585     0.0963062
       204590     0.0962953
       204595     0.0962844
       204600     0.0962735
       204605     0.0962626
       204610     0.0962517
       204615     0.0962408
       204620     0.0962299
       204625      0.096219
       204630     0.0962081
       204635     0.0961972
       204640     0.0961863
       204645     0.0961754
       204650     0.0961646
       204655     0.0961537
       204660     0.0961428
       204665     0.0961319
       204670      0.096121
       204675     0.0961101
       204680     0.0960993
       204685     0.0960884
       204690     0.0960775
       204695     0.0960666
       204700     0.0960558
       204705     0.0960449
       204710      0.096034
       204715     0.0960232
       204720     0.0960123
       204725     0.0960014
       204730     0.0959906
       204735     0.0959797
       204740     0.0959688
       204745      0.095958
       204750     0.0959471
       204755     0.0959363
       204760     0.0959254
       204765     0.0959146
       204770     0.0959037
       204775     0.0958929
       204780      0.095882
       204785     0.0958712
       204790     0.0958603
       204795     0.0958495
       204800     0.0958387
       204805     0.0958278
       204810      0.095817
       204815     0.0958061
       204820     0.0957953
       204825     0.0957845
       204830     0.0957737
       204835     0.0957628
       204840      0.095752
       204845     0.0957412
       204850     0.0957303
       204855     0.0957195
       204860     0.0957087
       204865     0.0956979
       204870     0.0956871
       204875     0.0956763
       204880     0.0956654
       204885     0.0956546
       204890     0.0956438
       204895      0.095633
       204900     0.0956222
       204905     0.0956114
       204910     0.0956006
       204915     0.0955898
       204920      0.095579
       204925     0.0955682
       204930     0.0955574
       204935     0.0955466
       204940     0.0955358
       204945      0.095525
       204950     0.0955142
       204955     0.0955034
       204960     0.0954926
       204965     0.0954818
       204970     0.0954711
       204975     0.0954603
       204980     0.0954495
       204985     0.0954387
       204990     0.0954279
       204995     0.0954172
       205000     0.0954064
       205005     0.0953956
       205010     0.0953848
       205015     0.0953741
       205020     0.0953633
       205025     0.0953525
       205030     0.0953418
       205035      0.095331
       205040     0.0953202
       205045     0.0953095
       205050     0.0952987
       205055      0.095288
       205060     0.0952772
       205065     0.0952664
       205070     0.0952557
       205075     0.0952449
       205080     0.0952342
       205085     0.0952234
       205090     0.0952127
       205095     0.0952019
       205100     0.0951912
       205105     0.0951805
       205110     0.0951697
       205115      0.095159
       205120     0.0951482
       205125     0.0951375
       205130     0.0951268
       205135      0.095116
       205140     0.0951053
       205145     0.0950946
       205150     0.0950839
       205155     0.0950731
       205160     0.0950624
       205165     0.0950517
       205170      0.095041
       205175     0.0950302
       205180     0.0950195
       205185     0.0950088
       205190     0.0949981
       205195     0.0949874
       205200     0.0949767
       205205      0.094966
       205210     0.0949552
       205215     0.0949445
       205220     0.0949338
       205225     0.0949231
       205230     0.0949124
       205235     0.0949017
       205240      0.094891
       205245     0.0948803
       205250     0.0948696
       205255     0.0948589
       205260     0.0948482
       205265     0.0948375
       205270     0.0948269
       205275     0.0948162
       205280     0.0948055
       205285     0.0947948
       205290     0.0947841
       205295     0.0947734
       205300     0.0947628
       205305     0.0947521
       205310     0.0947414
       205315     0.0947307
       205320       0.09472
       205325     0.0947094
       205330     0.0946987
       205335      0.094688
       205340     0.0946774