# Probe 0 (0.05 0.05 0.005)
#       Probe             0
#        Time
       200005   4.82346e-06
       200010    4.8229e-06
       200015   4.82233e-06
       200020   4.82177e-06
       200025    4.8212e-06
       200030   4.82064e-06
       200035   4.82007e-06
       200040   4.81951e-06
       200045   4.81895e-06
       200050   4.81838e-06
       200055   4.81782e-06
       200060   4.81726e-06
       200065   4.81669e-06
       200070   4.81613e-06
       200075   4.81556e-06
       200080     4.815e-06
       200085   4.81444e-06
       200090   4.81388e-06
       200095   4.81331e-06
       200100   4.81275e-06
       200105   4.81219e-06
       200110   4.81162e-06
       200115   4.81106e-06
       200120    4.8105e-06
       200125   4.80994e-06
       200130   4.80937e-06
       200135   4.80881e-06
       200140   4.80825e-06
       200145   4.80769e-06
       200150   4.80712e-06
       200155   4.80656e-06
       200160     4.806e-06
       200165   4.80544e-06
       200170   4.80488e-06
       200175   4.80431e-06
       200180   4.80375e-06
       200185   4.80319e-06
       200190   4.80263e-06
       200195   4.80207e-06
       200200   4.80151e-06
       200205   4.80095e-06
       200210   4.80039e-06
       200215   4.79982e-06
       200220   4.79926e-06
       200225    4.7987e-06
       200230   4.79814e-06
       200235   4.79758e-06
       200240   4.79702e-06
       200245   4.79646e-06
       200250    4.7959e-06
       200255   4.79534e-06
       200260   4.79478e-06
       200265   4.79422e-06
       200270   4.79366e-06
       200275    4.7931e-06
       200280   4.79254e-06
       200285   4.79198e-06
       200290   4.79142e-06
       200295   4.79086e-06
       200300    4.7903e-06
       200305   4.78974e-06
       200310   4.78918e-06
       200315   4.78862e-06
       200320   4.78806e-06
       200325    4.7875e-06
       200330   4.78695e-06
       200335   4.78639e-06
       200340   4.78583e-06
       200345   4.78527e-06
       200350   4.78471e-06
       200355   4.78415e-06
       200360   4.78359e-06
       200365   4.78303e-06
       200370   4.78248e-06
       200375   4.78192e-06
       200380   4.78136e-06
       200385    4.7808e-06
       200390   4.78024e-06
       200395   4.77969e-06
       200400   4.77913e-06
       200405   4.77857e-06
       200410   4.77801e-06
       200415   4.77745e-06
       200420    4.7769e-06
       200425   4.77634e-06
       200430   4.77578e-06
       200435   4.77523e-06
       200440   4.77467e-06
       200445   4.77411e-06
       200450   4.77355e-06
       200455     4.773e-06
       200460   4.77244e-06
       200465   4.77188e-06
       200470   4.77133e-06
       200475   4.77077e-06
       200480   4.77021e-06
       200485   4.76966e-06
       200490    4.7691e-06
       200495   4.76855e-06
       200500   4.76799e-06
       200505   4.76743e-06
       200510   4.76688e-06
       200515   4.76632e-06
       200520   4.76577e-06
       200525   4.76521e-06
       200530   4.76465e-06
       200535    4.7641e-06
       200540   4.76354e-06
       200545   4.76299e-06
       200550   4.76243e-06
       200555   4.76188e-06
       200560   4.76132e-06
       200565   4.76077e-06
       200570   4.76021e-06
       200575   4.75966e-06
       200580    4.7591e-06
       200585   4.75855e-06
       200590   4.75799e-06
       200595   4.75744e-06
       200600   4.75688e-06
       200605   4.75633e-06
       200610   4.75578e-06
       200615   4.75522e-06
       200620   4.75467e-06
       200625   4.75411e-06
       200630   4.75356e-06
       200635   4.75301e-06
       200640   4.75245e-06
       200645    4.7519e-06
       200650   4.75134e-06
       200655   4.75079e-06
       200660   4.75024e-06
       200665   4.74968e-06
       200670   4.74913e-06
       200675   4.74858e-06
       200680   4.74803e-06
       200685   4.74747e-06
       200690   4.74692e-06
       200695   4.74637e-06
       200700   4.74581e-06
       200705   4.74526e-06
       200710   4.74471e-06
       200715   4.74416e-06
       200720    4.7436e-06
       200725   4.74305e-06
       200730    4.7425e-06
       200735   4.74195e-06
       200740   4.74139e-06
       200745   4.74084e-06
       200750   4.74029e-06
       200755   4.73974e-06
       200760   4.73919e-06
       200765   4.73864e-06
       200770   4.73808e-06
       200775   4.73753e-06
       200780   4.73698e-06
       200785   4.73643e-06
       200790   4.73588e-06
       200795   4.73533e-06
       200800   4.73478e-06
       200805   4.73423e-06
       200810   4.73367e-06
       200815   4.73312e-06
       200820   4.73257e-06
       200825   4.73202e-06
       200830   4.73147e-06
       200835   4.73092e-06
       200840   4.73037e-06
       200845   4.72982e-06
       200850   4.72927e-06
       200855   4.72872e-06
       200860   4.72817e-06
       200865   4.72762e-06
       200870   4.72707e-06
       200875   4.72652e-06
       200880   4.72597e-06
       200885   4.72542e-06
       200890   4.72487e-06
       200895   4.72432e-06
       200900   4.72377e-06
       200905   4.72322e-06
       200910   4.72267e-06
       200915   4.72213e-06
       200920   4.72158e-06
       200925   4.72103e-06
       200930   4.72048e-06
       200935   4.71993e-06
       200940   4.71938e-06
       200945   4.71883e-06
       200950   4.71828e-06
       200955   4.71774e-06
       200960   4.71719e-06
       200965   4.71664e-06
       200970   4.71609e-06
       200975   4.71554e-06
       200980   4.71499e-06
       200985   4.71445e-06
       200990    4.7139e-06
       200995   4.71335e-06
       201000    4.7128e-06
       201005   4.71226e-06
       201010   4.71171e-06
       201015   4.71116e-06
       201020   4.71061e-06
       201025   4.71007e-06
       201030   4.70952e-06
       201035   4.70897e-06
       201040   4.70842e-06
       201045   4.70788e-06
       201050   4.70733e-06
       201055   4.70678e-06
       201060   4.70624e-06
       201065   4.70569e-06
       201070   4.70514e-06
       201075    4.7046e-06
       201080   4.70405e-06
       201085    4.7035e-06
       201090   4.70296e-06
       201095   4.70241e-06
       201100   4.70187e-06
       201105   4.70132e-06
       201110   4.70077e-06
       201115   4.70023e-06
       201120   4.69968e-06
       201125   4.69914e-06
       201130   4.69859e-06
       201135   4.69805e-06
       201140    4.6975e-06
       201145   4.69696e-06
       201150   4.69641e-06
       201155   4.69587e-06
       201160   4.69532e-06
       201165   4.69478e-06
       201170   4.69423e-06
       201175   4.69369e-06
       201180   4.69314e-06
       201185    4.6926e-06
       201190   4.69205e-06
       201195   4.69151e-06
       201200   4.69096e-06
       201205   4.69042e-06
       201210   4.68987e-06
       201215   4.68933e-06
       201220   4.68879e-06
       201225   4.68824e-06
       201230    4.6877e-06
       201235   4.68715e-06
       201240   4.68661e-06
       201245   4.68607e-06
       201250   4.68552e-06
       201255   4.68498e-06
       201260   4.68444e-06
       201265   4.68389e-06
       201270   4.68335e-06
       201275   4.68281e-06
       201280   4.68226e-06
       201285   4.68172e-06
       201290   4.68118e-06
       201295   4.68064e-06
       201300   4.68009e-06
       201305   4.67955e-06
       201310   4.67901e-06
       201315   4.67847e-06
       201320   4.67792e-06
       201325   4.67738e-06
       201330   4.67684e-06
       201335    4.6763e-06
       201340   4.67575e-06
       201345   4.67521e-06
       201350   4.67467e-06
       201355   4.67413e-06
       201360   4.67359e-06
       201365   4.67304e-06
       201370    4.6725e-06
       201375   4.67196e-06
       201380   4.67142e-06
       201385   4.67088e-06
       201390   4.67034e-06
       201395    4.6698e-06
       201400   4.66926e-06
       201405   4.66871e-06
       201410   4.66817e-06
       201415   4.66763e-06
       201420   4.66709e-06
       201425   4.66655e-06
       201430   4.66601e-06
       201435   4.66547e-06
       201440   4.66493e-06
       201445   4.66439e-06
       201450   4.66385e-06
       201455   4.66331e-06
       201460   4.66277e-06
       201465   4.66223e-06
       201470   4.66169e-06
       201475   4.66115e-06
       201480   4.66061e-06
       201485   4.66007e-06
       201490   4.65953e-06
       201495   4.65899e-06
       201500   4.65845e-06
       201505   4.65791e-06
       201510   4.65737e-06
       201515   4.65683e-06
       201520   4.65629e-06
       201525   4.65576e-06
       201530   4.65522e-06
       201535   4.65468e-06
       201540   4.65414e-06
       201545    4.6536e-06
       201550   4.65306e-06
       201555   4.65252e-06
       201560   4.65198e-06
       201565   4.65145e-06
       201570   4.65091e-06
       201575   4.65037e-06
       201580   4.64983e-06
       201585   4.64929e-06
       201590   4.64876e-06
       201595   4.64822e-06
       201600   4.64768e-06
       201605   4.64714e-06
       201610    4.6466e-06
       201615   4.64607e-06
       201620   4.64553e-06
       201625   4.64499e-06
       201630   4.64445e-06
       201635   4.64392e-06
       201640   4.64338e-06
       201645   4.64284e-06
       201650   4.64231e-06
       201655   4.64177e-06
       201660   4.64123e-06
       201665    4.6407e-06
       201670   4.64016e-06
       201675   4.63962e-06
       201680   4.63909e-06
       201685   4.63855e-06
       201690   4.63801e-06
       201695   4.63748e-06
       201700   4.63694e-06
       201705    4.6364e-06
       201710   4.63587e-06
       201715   4.63533e-06
       201720    4.6348e-06
       201725   4.63426e-06
       201730   4.63372e-06
       201735   4.63319e-06
       201740   4.63265e-06
       201745   4.63212e-06
       201750   4.63158e-06
       201755   4.63105e-06
       201760   4.63051e-06
       201765   4.62998e-06
       201770   4.62944e-06
       201775   4.62891e-06
       201780   4.62837e-06
       201785   4.62784e-06
       201790    4.6273e-06
       201795   4.62677e-06
       201800   4.62623e-06
       201805    4.6257e-06
       201810   4.62516e-06
       201815   4.62463e-06
       201820    4.6241e-06
       201825   4.62356e-06
       201830   4.62303e-06
       201835   4.62249e-06
       201840   4.62196e-06
       201845   4.62143e-06
       201850   4.62089e-06
       201855   4.62036e-06
       201860   4.61983e-06
       201865   4.61929e-06
       201870   4.61876e-06
       201875   4.61823e-06
       201880   4.61769e-06
       201885   4.61716e-06
       201890   4.61663e-06
       201895   4.61609e-06
       201900   4.61556e-06
       201905   4.61503e-06
       201910   4.61449e-06
       201915   4.61396e-06
       201920   4.61343e-06
       201925    4.6129e-06
       201930   4.61236e-06
       201935   4.61183e-06
       201940    4.6113e-06
       201945   4.61077e-06
       201950   4.61023e-06
       201955    4.6097e-06
       201960   4.60917e-06
       201965   4.60864e-06
       201970   4.60811e-06
       201975   4.60758e-06
       201980   4.60704e-06
       201985   4.60651e-06
       201990   4.60598e-06
       201995   4.60545e-06
       202000   4.60492e-06
       202005   4.60439e-06
       202010   4.60386e-06
       202015   4.60332e-06
       202020   4.60279e-06
       202025   4.60226e-06
       202030   4.60173e-06
       202035    4.6012e-06
       202040   4.60067e-06
       202045   4.60014e-06
       202050   4.59961e-06
       202055   4.59908e-06
       202060   4.59855e-06
       202065   4.59802e-06
       202070   4.59749e-06
       202075   4.59696e-06
       202080   4.59643e-06
       202085    4.5959e-06
       202090   4.59537e-06
       202095   4.59484e-06
       202100   4.59431e-06
       202105   4.59378e-06
       202110   4.59325e-06
       202115   4.59272e-06
       202120   4.59219e-06
       202125   4.59166e-06
       202130   4.59113e-06
       202135    4.5906e-06
       202140   4.59007e-06
       202145   4.58954e-06
       202150   4.58901e-06
       202155   4.58849e-06
       202160   4.58796e-06
       202165   4.58743e-06
       202170    4.5869e-06
       202175   4.58637e-06
       202180   4.58584e-06
       202185   4.58531e-06
       202190   4.58479e-06
       202195   4.58426e-06
       202200   4.58373e-06
       202205    4.5832e-06
       202210   4.58267e-06
       202215   4.58215e-06
       202220   4.58162e-06
       202225   4.58109e-06
       202230   4.58056e-06
       202235   4.58004e-06
       202240   4.57951e-06
       202245   4.57898e-06
       202250   4.57845e-06
       202255   4.57793e-06
       202260    4.5774e-06
       202265   4.57687e-06
       202270   4.57634e-06
       202275   4.57582e-06
       202280   4.57529e-06
       202285   4.57476e-06
       202290   4.57424e-06
       202295   4.57371e-06
       202300   4.57318e-06
       202305   4.57266e-06
       202310   4.57213e-06
       202315   4.57161e-06
       202320   4.57108e-06
       202325   4.57055e-06
       202330   4.57003e-06
       202335    4.5695e-06
       202340   4.56897e-06
       202345   4.56845e-06
       202350   4.56792e-06
       202355    4.5674e-06
       202360   4.56687e-06
       202365   4.56635e-06
       202370   4.56582e-06
       202375    4.5653e-06
       202380   4.56477e-06
       202385   4.56425e-06
       202390   4.56372e-06
       202395    4.5632e-06
       202400   4.56267e-06
       202405   4.56215e-06
       202410   4.56162e-06
       202415    4.5611e-06
       202420   4.56057e-06
       202425   4.56005e-06
       202430   4.55952e-06
       202435     4.559e-06
       202440   4.55847e-06
       202445   4.55795e-06
       202450   4.55742e-06
       202455    4.5569e-06
       202460   4.55638e-06
       202465   4.55585e-06
       202470   4.55533e-06
       202475   4.55481e-06
       202480   4.55428e-06
       202485   4.55376e-06
       202490   4.55323e-06
       202495   4.55271e-06
       202500   4.55219e-06
       202505   4.55166e-06
       202510   4.55114e-06
       202515   4.55062e-06
       202520   4.55009e-06
       202525   4.54957e-06
       202530   4.54905e-06
       202535   4.54853e-06
       202540     4.548e-06
       202545   4.54748e-06
       202550   4.54696e-06
       202555   4.54644e-06
       202560   4.54591e-06
       202565   4.54539e-06
       202570   4.54487e-06
       202575   4.54435e-06
       202580   4.54382e-06
       202585    4.5433e-06
       202590   4.54278e-06
       202595   4.54226e-06
       202600   4.54174e-06
       202605   4.54122e-06
       202610   4.54069e-06
       202615   4.54017e-06
       202620   4.53965e-06
       202625   4.53913e-06
       202630   4.53861e-06
       202635   4.53809e-06
       202640   4.53757e-06
       202645   4.53704e-06
       202650   4.53652e-06
       202655     4.536e-06
       202660   4.53548e-06
       202665   4.53496e-06
       202670   4.53444e-06
       202675   4.53392e-06
       202680    4.5334e-06
       202685   4.53288e-06
       202690   4.53236e-06
       202695   4.53184e-06
       202700   4.53132e-06
       202705    4.5308e-06
       202710   4.53028e-06
       202715   4.52976e-06
       202720   4.52924e-06
       202725   4.52872e-06
       202730    4.5282e-06
       202735   4.52768e-06
       202740   4.52716e-06
       202745   4.52664e-06
       202750   4.52612e-06
       202755    4.5256e-06
       202760   4.52508e-06
       202765   4.52456e-06
       202770   4.52404e-06
       202775   4.52352e-06
       202780     4.523e-06
       202785   4.52249e-06
       202790   4.52197e-06
       202795   4.52145e-06
       202800   4.52093e-06
       202805   4.52041e-06
       202810   4.51989e-06
       202815   4.51937e-06
       202820   4.51886e-06
       202825   4.51834e-06
       202830   4.51782e-06
       202835    4.5173e-06
       202840   4.51678e-06
       202845   4.51626e-06
       202850   4.51575e-06
       202855   4.51523e-06
       202860   4.51471e-06
       202865   4.51419e-06
       202870   4.51368e-06
       202875   4.51316e-06
       202880   4.51264e-06
       202885   4.51212e-06
       202890   4.51161e-06
       202895   4.51109e-06
       202900   4.51057e-06
       202905   4.51006e-06
       202910   4.50954e-06
       202915   4.50902e-06
       202920    4.5085e-06
       202925   4.50799e-06
       202930   4.50747e-06
       202935   4.50695e-06
       202940   4.50644e-06
       202945   4.50592e-06
       202950   4.50541e-06
       202955   4.50489e-06
       202960   4.50437e-06
       202965   4.50386e-06
       202970   4.50334e-06
       202975   4.50283e-06
       202980   4.50231e-06
       202985   4.50179e-06
       202990   4.50128e-06
       202995   4.50076e-06
       203000   4.50025e-06
       203005   4.49973e-06
       203010   4.49922e-06
       203015    4.4987e-06
       203020   4.49819e-06
       203025   4.49767e-06
       203030   4.49715e-06
       203035   4.49664e-06
       203040   4.49613e-06
       203045   4.49561e-06
       203050    4.4951e-06
       203055   4.49458e-06
       203060   4.49407e-06
       203065   4.49355e-06
       203070   4.49304e-06
       203075   4.49252e-06
       203080   4.49201e-06
       203085   4.49149e-06
       203090   4.49098e-06
       203095   4.49047e-06
       203100   4.48995e-06
       203105   4.48944e-06
       203110   4.48892e-06
       203115   4.48841e-06
       203120    4.4879e-06
       203125   4.48738e-06
       203130   4.48687e-06
       203135   4.48636e-06
       203140   4.48584e-06
       203145   4.48533e-06
       203150   4.48482e-06
       203155    4.4843e-06
       203160   4.48379e-06
       203165   4.48328e-06
       203170   4.48276e-06
       203175   4.48225e-06
       203180   4.48174e-06
       203185   4.48123e-06
       203190   4.48071e-06
       203195    4.4802e-06
       203200   4.47969e-06
       203205   4.47918e-06
       203210   4.47866e-06
       203215   4.47815e-06
       203220   4.47764e-06
       203225   4.47713e-06
       203230   4.47661e-06
       203235    4.4761e-06
       203240   4.47559e-06
       203245   4.47508e-06
       203250   4.47457e-06
       203255   4.47406e-06
       203260   4.47354e-06
       203265   4.47303e-06
       203270   4.47252e-06
       203275   4.47201e-06
       203280    4.4715e-06
       203285   4.47099e-06
       203290   4.47048e-06
       203295   4.46997e-06
       203300   4.46945e-06
       203305   4.46894e-06
       203310   4.46843e-06
       203315   4.46792e-06
       203320   4.46741e-06
       203325    4.4669e-06
       203330   4.46639e-06
       203335   4.46588e-06
       203340   4.46537e-06
       203345   4.46486e-06
       203350   4.46435e-06
       203355   4.46384e-06
       203360   4.46333e-06
       203365   4.46282e-06
       203370   4.46231e-06
       203375    4.4618e-06
       203380   4.46129e-06
       203385   4.46078e-06
       203390   4.46027e-06
       203395   4.45976e-06
       203400   4.45925e-06
       203405   4.45874e-06
       203410   4.45823e-06
       203415   4.45772e-06
       203420   4.45722e-06
       203425   4.45671e-06
       203430    4.4562e-06
       203435   4.45569e-06
       203440   4.45518e-06
       203445   4.45467e-06
       203450   4.45416e-06
       203455   4.45365e-06
       203460   4.45315e-06
       203465   4.45264e-06
       203470   4.45213e-06
       203475   4.45162e-06
       203480   4.45111e-06
       203485    4.4506e-06
       203490    4.4501e-06
       203495   4.44959e-06
       203500   4.44908e-06
       203505   4.44857e-06
       203510   4.44806e-06
       203515   4.44756e-06
       203520   4.44705e-06
       203525   4.44654e-06
       203530   4.44603e-06
       203535   4.44553e-06
       203540   4.44502e-06
       203545   4.44451e-06
       203550   4.44401e-06
       203555    4.4435e-06
       203560   4.44299e-06
       203565   4.44248e-06
       203570   4.44198e-06
       203575   4.44147e-06
       203580   4.44096e-06
       203585   4.44046e-06
       203590   4.43995e-06
       203595   4.43944e-06
       203600   4.43894e-06
       203605   4.43843e-06
       203610   4.43793e-06
       203615   4.43742e-06
       203620   4.43691e-06
       203625   4.43641e-06
       203630    4.4359e-06
       203635    4.4354e-06
       203640   4.43489e-06
       203645   4.43438e-06
       203650   4.43388e-06
       203655   4.43337e-06
       203660   4.43287e-06
       203665   4.43236e-06
       203670   4.43186e-06
       203675   4.43135e-06
       203680   4.43085e-06
       203685   4.43034e-06
       203690   4.42984e-06
       203695   4.42933e-06
       203700   4.42883e-06
       203705   4.42832e-06
       203710   4.42782e-06
       203715   4.42731e-06
       203720   4.42681e-06
       203725    4.4263e-06
       203730    4.4258e-06
       203735    4.4253e-06
       203740   4.42479e-06
       203745   4.42429e-06
       203750   4.42378e-06
       203755   4.42328e-06
       203760   4.42278e-06
       203765   4.42227e-06
       203770   4.42177e-06
       203775   4.42126e-06
       203780   4.42076e-06
       203785   4.42026e-06
       203790   4.41975e-06
       203795   4.41925e-06
       203800   4.41875e-06
       203805   4.41824e-06
       203810   4.41774e-06
       203815   4.41724e-06
       203820   4.41673e-06
       203825   4.41623e-06
       203830   4.41573e-06
       203835   4.41522e-06
       203840   4.41472e-06
       203845   4.41422e-06
       203850   4.41372e-06
       203855   4.41321e-06
       203860   4.41271e-06
       203865   4.41221e-06
       203870   4.41171e-06
       203875   4.41121e-06
       203880    4.4107e-06
       203885    4.4102e-06
       203890    4.4097e-06
       203895    4.4092e-06
       203900    4.4087e-06
       203905   4.40819e-06
       203910   4.40769e-06
       203915   4.40719e-06
       203920   4.40669e-06
       203925   4.40619e-06
       203930   4.40569e-06
       203935   4.40518e-06
       203940   4.40468e-06
       203945   4.40418e-06
       203950   4.40368e-06
       203955   4.40318e-06
       203960   4.40268e-06
       203965   4.40218e-06
       203970   4.40168e-06
       203975   4.40118e-06
       203980   4.40068e-06
       203985   4.40018e-06
       203990   4.39967e-06
       203995   4.39917e-06
       204000   4.39867e-06
       204005   4.39817e-06
       204010   4.39767e-06
       204015   4.39717e-06
       204020   4.39667e-06
       204025   4.39617e-06
       204030   4.39567e-06
       204035   4.39517e-06
       204040   4.39467e-06
       204045   4.39417e-06
       204050   4.39367e-06
       204055   4.39318e-06
       204060   4.39268e-06
       204065   4.39218e-06
       204070   4.39168e-06
       204075   4.39118e-06
       204080   4.39068e-06
       204085   4.39018e-06
       204090   4.38968e-06
       204095   4.38918e-06
       204100   4.38868e-06
       204105   4.38818e-06
       204110   4.38769e-06
       204115   4.38719e-06
       204120   4.38669e-06
       204125   4.38619e-06
       204130   4.38569e-06
       204135   4.38519e-06
       204140   4.38469e-06
       204145    4.3842e-06
       204150    4.3837e-06
       204155    4.3832e-06
       204160    4.3827e-06
       204165    4.3822e-06
       204170   4.38171e-06
       204175   4.38121e-06
       204180   4.38071e-06
       204185   4.38021e-06
       204190   4.37972e-06
       204195   4.37922e-06
       204200   4.37872e-06
       204205   4.37822e-06
       204210   4.37773e-06
       204215   4.37723e-06
       204220   4.37673e-06
       204225   4.37624e-06
       204230   4.37574e-06
       204235   4.37524e-06
       204240   4.37475e-06
       204245   4.37425e-06
       204250   4.37375e-06
       204255   4.37326e-06
       204260   4.37276e-06
       204265   4.37226e-06
       204270   4.37177e-06
       204275   4.37127e-06
       204280   4.37077e-06
       204285   4.37028e-06
       204290   4.36978e-06
       204295   4.36929e-06
       204300   4.36879e-06
       204305   4.36829e-06
       204310    4.3678e-06
       204315    4.3673e-06
       204320   4.36681e-06
       204325   4.36631e-06
       204330   4.36582e-06
       204335   4.36532e-06
       204340   4.36483e-06
       204345   4.36433e-06
       204350   4.36384e-06
       204355   4.36334e-06
       204360   4.36285e-06
       204365   4.36235e-06
       204370   4.36186e-06
       204375   4.36136e-06
       204380   4.36087e-06
       204385   4.36037e-06
       204390   4.35988e-06
       204395   4.35938e-06
       204400   4.35889e-06
       204405   4.35839e-06
       204410    4.3579e-06
       204415    4.3574e-06
       204420   4.35691e-06
       204425   4.35642e-06
       204430   4.35592e-06
       204435   4.35543e-06
       204440   4.35494e-06
       204445   4.35444e-06
       204450   4.35395e-06
       204455   4.35345e-06
       204460   4.35296e-06
       204465   4.35247e-06
       204470   4.35197e-06
       204475   4.35148e-06
       204480   4.35099e-06
       204485   4.35049e-06
       204490      4.35e-06
       204495   4.34951e-06
       204500   4.34901e-06
       204505   4.34852e-06
       204510   4.34803e-06
       204515   4.34754e-06
       204520   4.34704e-06
       204525   4.34655e-06
       204530   4.34606e-06
       204535   4.34557e-06
       204540   4.34507e-06
       204545   4.34458e-06
       204550   4.34409e-06
       204555    4.3436e-06
       204560   4.34311e-06
       204565   4.34261e-06
       204570   4.34212e-06
       204575   4.34163e-06
       204580   4.34114e-06
       204585   4.34065e-06
       204590   4.34015e-06
       204595   4.33966e-06
       204600   4.33917e-06
       204605   4.33868e-06
       204610   4.33819e-06
       204615    4.3377e-06
       204620   4.33721e-06
       204625   4.33672e-06
       204630   4.33622e-06
       204635   4.33573e-06
       204640   4.33524e-06
       204645   4.33475e-06
       204650   4.33426e-06
       204655   4.33377e-06
       204660   4.33328e-06
       204665   4.33279e-06
       204670    4.3323e-06
       204675   4.33181e-06
       204680   4.33132e-06
       204685   4.33083e-06
       204690   4.33034e-06
       204695   4.32985e-06
       204700   4.32936e-06
       204705   4.32887e-06
       204710   4.32838e-06
       204715   4.32789e-06
       204720    4.3274e-06
       204725   4.32691e-06
       204730   4.32642e-06
       204735   4.32593e-06
       204740   4.32544e-06
       204745   4.32495e-06
       204750   4.32446e-06
       204755   4.32397e-06
       204760   4.32348e-06
       204765   4.32299e-06
       204770    4.3225e-06
       204775   4.32202e-06
       204780   4.32153e-06
       204785   4.32104e-06
       204790   4.32055e-06
       204795   4.32006e-06
       204800   4.31957e-06
       204805   4.31908e-06
       204810    4.3186e-06
       204815   4.31811e-06
       204820   4.31762e-06
       204825   4.31713e-06
       204830   4.31664e-06
       204835   4.31615e-06
       204840   4.31567e-06
       204845   4.31518e-06
       204850   4.31469e-06
       204855    4.3142e-06
       204860   4.31372e-06
       204865   4.31323e-06
       204870   4.31274e-06
       204875   4.31225e-06
       204880   4.31176e-06
       204885   4.31128e-06
       204890   4.31079e-06
       204895    4.3103e-06
       204900   4.30982e-06
       204905   4.30933e-06
       204910   4.30884e-06
       204915   4.30836e-06
       204920   4.30787e-06
       204925   4.30738e-06
       204930   4.30689e-06
       204935   4.30641e-06
       204940   4.30592e-06
       204945   4.30544e-06
       204950   4.30495e-06
       204955   4.30446e-06
       204960   4.30398e-06
       204965   4.30349e-06
       204970     4.303e-06
       204975   4.30252e-06
       204980   4.30203e-06
       204985   4.30155e-06
       204990   4.30106e-06
       204995   4.30057e-06
       205000   4.30009e-06
       205005    4.2996e-06
       205010   4.29912e-06
       205015   4.29863e-06
       205020   4.29815e-06
       205025   4.29766e-06
       205030   4.29718e-06
       205035   4.29669e-06
       205040   4.29621e-06
       205045   4.29572e-06
       205050   4.29524e-06
       205055   4.29475e-06
       205060   4.29427e-06
       205065   4.29378e-06
       205070    4.2933e-06
       205075   4.29281e-06
       205080   4.29233e-06
       205085   4.29184e-06
       205090   4.29136e-06
       205095   4.29087e-06
       205100   4.29039e-06
       205105   4.28991e-06
       205110   4.28942e-06
       205115   4.28894e-06
       205120   4.28845e-06
       205125   4.28797e-06
       205130   4.28749e-06
       205135     4.287e-06
       205140   4.28652e-06
       205145   4.28604e-06
       205150   4.28555e-06
       205155   4.28507e-06
       205160   4.28459e-06
       205165    4.2841e-06
       205170   4.28362e-06
       205175   4.28314e-06
       205180   4.28265e-06
       205185   4.28217e-06
       205190   4.28169e-06
       205195    4.2812e-06
       205200   4.28072e-06
       205205   4.28024e-06
       205210   4.27976e-06
       205215   4.27927e-06
       205220   4.27879e-06
       205225   4.27831e-06
       205230   4.27783e-06
       205235   4.27734e-06
       205240   4.27686e-06
       205245   4.27638e-06
       205250    4.2759e-06
       205255   4.27541e-06
       205260   4.27493e-06
       205265   4.27445e-06
       205270   4.27397e-06
       205275   4.27349e-06
       205280   4.27301e-06
       205285   4.27252e-06
       205290   4.27204e-06
       205295   4.27156e-06
       205300   4.27108e-06
       205305    4.2706e-06
       205310   4.27012e-06
       205315   4.26964e-06
       205320   4.26915e-06
       205325   4.26867e-06
       205330   4.26819e-06
       205335   4.26771e-06
       205340   4.26723e-06