# Probe 0 (0.05 0.05 0.005)
#       Probe             0
#        Time
       200005       1.10702
       200010       1.10701
       200015       1.10699
       200020       1.10698
       200025       1.10697
       200030       1.10696
       200035       1.10694
       200040       1.10693
       200045       1.10692
       200050       1.10691
       200055       1.10689
       200060       1.10688
       200065       1.10687
       200070       1.10686
       200075       1.10684
       200080       1.10683
       200085       1.10682
       200090       1.10681
       200095       1.10679
       200100       1.10678
       200105       1.10677
       200110       1.10676
       200115       1.10674
       200120       1.10673
       200125       1.10672
       200130       1.10671
       200135       1.10669
       200140       1.10668
       200145       1.10667
       200150       1.10666
       200155       1.10664
       200160       1.10663
       200165       1.10662
       200170       1.10661
       200175       1.10659
       200180       1.10658
       200185       1.10657
       200190       1.10656
       200195       1.10654
       200200       1.10653
       200205       1.10652
       200210       1.10651
       200215       1.10649
       200220       1.10648
       200225       1.10647
       200230       1.10646
       200235       1.10644
       200240       1.10643
       200245       1.10642
       200250       1.10641
       200255       1.10639
       200260       1.10638
       200265       1.10637
       200270       1.10636
       200275       1.10634
       200280       1.10633
       200285       1.10632
       200290       1.10631
       200295        1.1063
       200300       1.10628
       200305       1.10627
       200310       1.10626
       200315       1.10625
       200320       1.10623
       200325       1.10622
       200330       1.10621
       200335        1.1062
       200340       1.10618
       200345       1.10617
       200350       1.10616
       200355       1.10615
       200360       1.10613
       200365       1.10612
       200370       1.10611
       200375        1.1061
       200380       1.10608
       200385       1.10607
       200390       1.10606
       200395       1.10605
       200400       1.10603
       200405       1.10602
       200410       1.10601
       200415         1.106
       200420       1.10599
       200425       1.10597
       200430       1.10596
       200435       1.10595
       200440       1.10594
       200445       1.10592
       200450       1.10591
       200455        1.1059
       200460       1.10589
       200465       1.10587
       200470       1.10586
       200475       1.10585
       200480       1.10584
       200485       1.10582
       200490       1.10581
       200495        1.1058
       200500       1.10579
       200505       1.10578
       200510       1.10576
       200515       1.10575
       200520       1.10574
       200525       1.10573
       200530       1.10571
       200535        1.1057
       200540       1.10569
       200545       1.10568
       200550       1.10566
       200555       1.10565
       200560       1.10564
       200565       1.10563
       200570       1.10562
       200575        1.1056
       200580       1.10559
       200585       1.10558
       200590       1.10557
       200595       1.10555
       200600       1.10554
       200605       1.10553
       200610       1.10552
       200615        1.1055
       200620       1.10549
       200625       1.10548
       200630       1.10547
       200635       1.10546
       200640       1.10544
       200645       1.10543
       200650       1.10542
       200655       1.10541
       200660       1.10539
       200665       1.10538
       200670       1.10537
       200675       1.10536
       200680       1.10534
       200685       1.10533
       200690       1.10532
       200695       1.10531
       200700        1.1053
       200705       1.10528
       200710       1.10527
       200715       1.10526
       200720       1.10525
       200725       1.10523
       200730       1.10522
       200735       1.10521
       200740        1.1052
       200745       1.10519
       200750       1.10517
       200755       1.10516
       200760       1.10515
       200765       1.10514
       200770       1.10512
       200775       1.10511
       200780        1.1051
       200785       1.10509
       200790       1.10508
       200795       1.10506
       200800       1.10505
       200805       1.10504
       200810       1.10503
       200815       1.10501
       200820         1.105
       200825       1.10499
       200830       1.10498
       200835       1.10497
       200840       1.10495
       200845       1.10494
       200850       1.10493
       200855       1.10492
       200860        1.1049
       200865       1.10489
       200870       1.10488
       200875       1.10487
       200880       1.10486
       200885       1.10484
       200890       1.10483
       200895       1.10482
       200900       1.10481
       200905       1.10479
       200910       1.10478
       200915       1.10477
       200920       1.10476
       200925       1.10475
       200930       1.10473
       200935       1.10472
       200940       1.10471
       200945        1.1047
       200950       1.10468
       200955       1.10467
       200960       1.10466
       200965       1.10465
       200970       1.10464
       200975       1.10462
       200980       1.10461
       200985        1.1046
       200990       1.10459
       200995       1.10458
       201000       1.10456
       201005       1.10455
       201010       1.10454
       201015       1.10453
       201020       1.10451
       201025        1.1045
       201030       1.10449
       201035       1.10448
       201040       1.10447
       201045       1.10445
       201050       1.10444
       201055       1.10443
       201060       1.10442
       201065       1.10441
       201070       1.10439
       201075       1.10438
       201080       1.10437
       201085       1.10436
       201090       1.10434
       201095       1.10433
       201100       1.10432
       201105       1.10431
       201110        1.1043
       201115       1.10428
       201120       1.10427
       201125       1.10426
       201130       1.10425
       201135       1.10424
       201140       1.10422
       201145       1.10421
       201150        1.1042
       201155       1.10419
       201160       1.10418
       201165       1.10416
       201170       1.10415
       201175       1.10414
       201180       1.10413
       201185       1.10411
       201190        1.1041
       201195       1.10409
       201200       1.10408
       201205       1.10407
       201210       1.10405
       201215       1.10404
       201220       1.10403
       201225       1.10402
       201230       1.10401
       201235       1.10399
       201240       1.10398
       201245       1.10397
       201250       1.10396
       201255       1.10395
       201260       1.10393
       201265       1.10392
       201270       1.10391
       201275        1.1039
       201280       1.10389
       201285       1.10387
       201290       1.10386
       201295       1.10385
       201300       1.10384
       201305       1.10383
       201310       1.10381
       201315        1.1038
       201320       1.10379
       201325       1.10378
       201330       1.10377
       201335       1.10375
       201340       1.10374
       201345       1.10373
       201350       1.10372
       201355       1.10371
       201360       1.10369
       201365       1.10368
       201370       1.10367
       201375       1.10366
       201380       1.10365
       201385       1.10363
       201390       1.10362
       201395       1.10361
       201400        1.1036
       201405       1.10359
       201410       1.10357
       201415       1.10356
       201420       1.10355
       201425       1.10354
       201430       1.10353
       201435       1.10351
       201440        1.1035
       201445       1.10349
       201450       1.10348
       201455       1.10347
       201460       1.10345
       201465       1.10344
       201470       1.10343
       201475       1.10342
       201480       1.10341
       201485       1.10339
       201490       1.10338
       201495       1.10337
       201500       1.10336
       201505       1.10335
       201510       1.10333
       201515       1.10332
       201520       1.10331
       201525        1.1033
       201530       1.10329
       201535       1.10327
       201540       1.10326
       201545       1.10325
       201550       1.10324
       201555       1.10323
       201560       1.10321
       201565        1.1032
       201570       1.10319
       201575       1.10318
       201580       1.10317
       201585       1.10315
       201590       1.10314
       201595       1.10313
       201600       1.10312
       201605       1.10311
       201610       1.10309
       201615       1.10308
       201620       1.10307
       201625       1.10306
       201630       1.10305
       201635       1.10303
       201640       1.10302
       201645       1.10301
       201650         1.103
       201655       1.10299
       201660       1.10298
       201665       1.10296
       201670       1.10295
       201675       1.10294
       201680       1.10293
       201685       1.10292
       201690        1.1029
       201695       1.10289
       201700       1.10288
       201705       1.10287
       201710       1.10286
       201715       1.10284
       201720       1.10283
       201725       1.10282
       201730       1.10281
       201735        1.1028
       201740       1.10279
       201745       1.10277
       201750       1.10276
       201755       1.10275
       201760       1.10274
       201765       1.10273
       201770       1.10271
       201775        1.1027
       201780       1.10269
       201785       1.10268
       201790       1.10267
       201795       1.10265
       201800       1.10264
       201805       1.10263
       201810       1.10262
       201815       1.10261
       201820        1.1026
       201825       1.10258
       201830       1.10257
       201835       1.10256
       201840       1.10255
       201845       1.10254
       201850       1.10252
       201855       1.10251
       201860        1.1025
       201865       1.10249
       201870       1.10248
       201875       1.10246
       201880       1.10245
       201885       1.10244
       201890       1.10243
       201895       1.10242
       201900       1.10241
       201905       1.10239
       201910       1.10238
       201915       1.10237
       201920       1.10236
       201925       1.10235
       201930       1.10233
       201935       1.10232
       201940       1.10231
       201945        1.1023
       201950       1.10229
       201955       1.10228
       201960       1.10226
       201965       1.10225
       201970       1.10224
       201975       1.10223
       201980       1.10222
       201985       1.10221
       201990       1.10219
       201995       1.10218
       202000       1.10217
       202005       1.10216
       202010       1.10215
       202015       1.10213
       202020       1.10212
       202025       1.10211
       202030        1.1021
       202035       1.10209
       202040       1.10208
       202045       1.10206
       202050       1.10205
       202055       1.10204
       202060       1.10203
       202065       1.10202
       202070         1.102
       202075       1.10199
       202080       1.10198
       202085       1.10197
       202090       1.10196
       202095       1.10195
       202100       1.10193
       202105       1.10192
       202110       1.10191
       202115        1.1019
       202120       1.10189
       202125       1.10188
       202130       1.10186
       202135       1.10185
       202140       1.10184
       202145       1.10183
       202150       1.10182
       202155       1.10181
       202160       1.10179
       202165       1.10178
       202170       1.10177
       202175       1.10176
       202180       1.10175
       202185       1.10173
       202190       1.10172
       202195       1.10171
       202200        1.1017
       202205       1.10169
       202210       1.10168
       202215       1.10166
       202220       1.10165
       202225       1.10164
       202230       1.10163
       202235       1.10162
       202240       1.10161
       202245       1.10159
       202250       1.10158
       202255       1.10157
       202260       1.10156
       202265       1.10155
       202270       1.10154
       202275       1.10152
       202280       1.10151
       202285        1.1015
       202290       1.10149
       202295       1.10148
       202300       1.10147
       202305       1.10145
       202310       1.10144
       202315       1.10143
       202320       1.10142
       202325       1.10141
       202330        1.1014
       202335       1.10138
       202340       1.10137
       202345       1.10136
       202350       1.10135
       202355       1.10134
       202360       1.10133
       202365       1.10131
       202370        1.1013
       202375       1.10129
       202380       1.10128
       202385       1.10127
       202390       1.10126
       202395       1.10124
       202400       1.10123
       202405       1.10122
       202410       1.10121
       202415        1.1012
       202420       1.10119
       202425       1.10117
       202430       1.10116
       202435       1.10115
       202440       1.10114
       202445       1.10113
       202450       1.10112
       202455        1.1011
       202460       1.10109
       202465       1.10108
       202470       1.10107
       202475       1.10106
       202480       1.10105
       202485       1.10103
       202490       1.10102
       202495       1.10101
       202500         1.101
       202505       1.10099
       202510       1.10098
       202515       1.10096
       202520       1.10095
       202525       1.10094
       202530       1.10093
       202535       1.10092
       202540       1.10091
       202545        1.1009
       202550       1.10088
       202555       1.10087
       202560       1.10086
       202565       1.10085
       202570       1.10084
       202575       1.10083
       202580       1.10081
       202585        1.1008
       202590       1.10079
       202595       1.10078
       202600       1.10077
       202605       1.10076
       202610       1.10074
       202615       1.10073
       202620       1.10072
       202625       1.10071
       202630        1.1007
       202635       1.10069
       202640       1.10068
       202645       1.10066
       202650       1.10065
       202655       1.10064
       202660       1.10063
       202665       1.10062
       202670       1.10061
       202675       1.10059
       202680       1.10058
       202685       1.10057
       202690       1.10056
       202695       1.10055
       202700       1.10054
       202705       1.10053
       202710       1.10051
       202715        1.1005
       202720       1.10049
       202725       1.10048
       202730       1.10047
       202735       1.10046
       202740       1.10044
       202745       1.10043
       202750       1.10042
       202755       1.10041
       202760        1.1004
       202765       1.10039
       202770       1.10038
       202775       1.10036
       202780       1.10035
       202785       1.10034
       202790       1.10033
       202795       1.10032
       202800       1.10031
       202805       1.10029
       202810       1.10028
       202815       1.10027
       202820       1.10026
       202825       1.10025
       202830       1.10024
       202835       1.10023
       202840       1.10021
       202845        1.1002
       202850       1.10019
       202855       1.10018
       202860       1.10017
       202865       1.10016
       202870       1.10015
       202875       1.10013
       202880       1.10012
       202885       1.10011
       202890        1.1001
       202895       1.10009
       202900       1.10008
       202905       1.10006
       202910       1.10005
       202915       1.10004
       202920       1.10003
       202925       1.10002
       202930       1.10001
       202935           1.1
       202940       1.09998
       202945       1.09997
       202950       1.09996
       202955       1.09995
       202960       1.09994
       202965       1.09993
       202970       1.09992
       202975        1.0999
       202980       1.09989
       202985       1.09988
       202990       1.09987
       202995       1.09986
       203000       1.09985
       203005       1.09984
       203010       1.09982
       203015       1.09981
       203020        1.0998
       203025       1.09979
       203030       1.09978
       203035       1.09977
       203040       1.09976
       203045       1.09974
       203050       1.09973
       203055       1.09972
       203060       1.09971
       203065        1.0997
       203070       1.09969
       203075       1.09968
       203080       1.09966
       203085       1.09965
       203090       1.09964
       203095       1.09963
       203100       1.09962
       203105       1.09961
       203110        1.0996
       203115       1.09958
       203120       1.09957
       203125       1.09956
       203130       1.09955
       203135       1.09954
       203140       1.09953
       203145       1.09952
       203150        1.0995
       203155       1.09949
       203160       1.09948
       203165       1.09947
       203170       1.09946
       203175       1.09945
       203180       1.09944
       203185       1.09943
       203190       1.09941
       203195        1.0994
       203200       1.09939
       203205       1.09938
       203210       1.09937
       203215       1.09936
       203220       1.09935
       203225       1.09933
       203230       1.09932
       203235       1.09931
       203240        1.0993
       203245       1.09929
       203250       1.09928
       203255       1.09927
       203260       1.09925
       203265       1.09924
       203270       1.09923
       203275       1.09922
       203280       1.09921
       203285        1.0992
       203290       1.09919
       203295       1.09918
       203300       1.09916
       203305       1.09915
       203310       1.09914
       203315       1.09913
       203320       1.09912
       203325       1.09911
       203330        1.0991
       203335       1.09908
       203340       1.09907
       203345       1.09906
       203350       1.09905
       203355       1.09904
       203360       1.09903
       203365       1.09902
       203370       1.09901
       203375       1.09899
       203380       1.09898
       203385       1.09897
       203390       1.09896
       203395       1.09895
       203400       1.09894
       203405       1.09893
       203410       1.09892
       203415        1.0989
       203420       1.09889
       203425       1.09888
       203430       1.09887
       203435       1.09886
       203440       1.09885
       203445       1.09884
       203450       1.09882
       203455       1.09881
       203460        1.0988
       203465       1.09879
       203470       1.09878
       203475       1.09877
       203480       1.09876
       203485       1.09875
       203490       1.09873
       203495       1.09872
       203500       1.09871
       203505        1.0987
       203510       1.09869
       203515       1.09868
       203520       1.09867
       203525       1.09866
       203530       1.09864
       203535       1.09863
       203540       1.09862
       203545       1.09861
       203550        1.0986
       203555       1.09859
       203560       1.09858
       203565       1.09857
       203570       1.09855
       203575       1.09854
       203580       1.09853
       203585       1.09852
       203590       1.09851
       203595        1.0985
       203600       1.09849
       203605       1.09848
       203610       1.09846
       203615       1.09845
       203620       1.09844
       203625       1.09843
       203630       1.09842
       203635       1.09841
       203640        1.0984
       203645       1.09839
       203650       1.09837
       203655       1.09836
       203660       1.09835
       203665       1.09834
       203670       1.09833
       203675       1.09832
       203680       1.09831
       203685        1.0983
       203690       1.09829
       203695       1.09827
       203700       1.09826
       203705       1.09825
       203710       1.09824
       203715       1.09823
       203720       1.09822
       203725       1.09821
       203730        1.0982
       203735       1.09818
       203740       1.09817
       203745       1.09816
       203750       1.09815
       203755       1.09814
       203760       1.09813
       203765       1.09812
       203770       1.09811
       203775       1.09809
       203780       1.09808
       203785       1.09807
       203790       1.09806
       203795       1.09805
       203800       1.09804
       203805       1.09803
       203810       1.09802
       203815       1.09801
       203820       1.09799
       203825       1.09798
       203830       1.09797
       203835       1.09796
       203840       1.09795
       203845       1.09794
       203850       1.09793
       203855       1.09792
       203860       1.09791
       203865       1.09789
       203870       1.09788
       203875       1.09787
       203880       1.09786
       203885       1.09785
       203890       1.09784
       203895       1.09783
       203900       1.09782
       203905        1.0978
       203910       1.09779
       203915       1.09778
       203920       1.09777
       203925       1.09776
       203930       1.09775
       203935       1.09774
       203940       1.09773
       203945       1.09772
       203950        1.0977
       203955       1.09769
       203960       1.09768
       203965       1.09767
       203970       1.09766
       203975       1.09765
       203980       1.09764
       203985       1.09763
       203990       1.09762
       203995        1.0976
       204000       1.09759
       204005       1.09758
       204010       1.09757
       204015       1.09756
       204020       1.09755
       204025       1.09754
       204030       1.09753
       204035       1.09752
       204040        1.0975
       204045       1.09749
       204050       1.09748
       204055       1.09747
       204060       1.09746
       204065       1.09745
       204070       1.09744
       204075       1.09743
       204080       1.09742
       204085       1.09741
       204090       1.09739
       204095       1.09738
       204100       1.09737
       204105       1.09736
       204110       1.09735
       204115       1.09734
       204120       1.09733
       204125       1.09732
       204130       1.09731
       204135       1.09729
       204140       1.09728
       204145       1.09727
       204150       1.09726
       204155       1.09725
       204160       1.09724
       204165       1.09723
       204170       1.09722
       204175       1.09721
       204180        1.0972
       204185       1.09718
       204190       1.09717
       204195       1.09716
       204200       1.09715
       204205       1.09714
       204210       1.09713
       204215       1.09712
       204220       1.09711
       204225        1.0971
       204230       1.09708
       204235       1.09707
       204240       1.09706
       204245       1.09705
       204250       1.09704
       204255       1.09703
       204260       1.09702
       204265       1.09701
       204270         1.097
       204275       1.09699
       204280       1.09697
       204285       1.09696
       204290       1.09695
       204295       1.09694
       204300       1.09693
       204305       1.09692
       204310       1.09691
       204315        1.0969
       204320       1.09689
       204325       1.09688
       204330       1.09686
       204335       1.09685
       204340       1.09684
       204345       1.09683
       204350       1.09682
       204355       1.09681
       204360        1.0968
       204365       1.09679
       204370       1.09678
       204375       1.09677
       204380       1.09675
       204385       1.09674
       204390       1.09673
       204395       1.09672
       204400       1.09671
       204405        1.0967
       204410       1.09669
       204415       1.09668
       204420       1.09667
       204425       1.09666
       204430       1.09665
       204435       1.09663
       204440       1.09662
       204445       1.09661
       204450        1.0966
       204455       1.09659
       204460       1.09658
       204465       1.09657
       204470       1.09656
       204475       1.09655
       204480       1.09654
       204485       1.09652
       204490       1.09651
       204495        1.0965
       204500       1.09649
       204505       1.09648
       204510       1.09647
       204515       1.09646
       204520       1.09645
       204525       1.09644
       204530       1.09643
       204535       1.09642
       204540        1.0964
       204545       1.09639
       204550       1.09638
       204555       1.09637
       204560       1.09636
       204565       1.09635
       204570       1.09634
       204575       1.09633
       204580       1.09632
       204585       1.09631
       204590        1.0963
       204595       1.09628
       204600       1.09627
       204605       1.09626
       204610       1.09625
       204615       1.09624
       204620       1.09623
       204625       1.09622
       204630       1.09621
       204635        1.0962
       204640       1.09619
       204645       1.09618
       204650       1.09616
       204655       1.09615
       204660       1.09614
       204665       1.09613
       204670       1.09612
       204675       1.09611
       204680        1.0961
       204685       1.09609
       204690       1.09608
       204695       1.09607
       204700       1.09606
       204705       1.09604
       204710       1.09603
       204715       1.09602
       204720       1.09601
       204725         1.096
       204730       1.09599
       204735       1.09598
       204740       1.09597
       204745       1.09596
       204750       1.09595
       204755       1.09594
       204760       1.09593
       204765       1.09591
       204770        1.0959
       204775       1.09589
       204780       1.09588
       204785       1.09587
       204790       1.09586
       204795       1.09585
       204800       1.09584
       204805       1.09583
       204810       1.09582
       204815       1.09581
       204820        1.0958
       204825       1.09578
       204830       1.09577
       204835       1.09576
       204840       1.09575
       204845       1.09574
       204850       1.09573
       204855       1.09572
       204860       1.09571
       204865        1.0957
       204870       1.09569
       204875       1.09568
       204880       1.09567
       204885       1.09565
       204890       1.09564
       204895       1.09563
       204900       1.09562
       204905       1.09561
       204910        1.0956
       204915       1.09559
       204920       1.09558
       204925       1.09557
       204930       1.09556
       204935       1.09555
       204940       1.09554
       204945       1.09553
       204950       1.09551
       204955        1.0955
       204960       1.09549
       204965       1.09548
       204970       1.09547
       204975       1.09546
       204980       1.09545
       204985       1.09544
       204990       1.09543
       204995       1.09542
       205000       1.09541
       205005        1.0954
       205010       1.09538
       205015       1.09537
       205020       1.09536
       205025       1.09535
       205030       1.09534
       205035       1.09533
       205040       1.09532
       205045       1.09531
       205050        1.0953
       205055       1.09529
       205060       1.09528
       205065       1.09527
       205070       1.09526
       205075       1.09524
       205080       1.09523
       205085       1.09522
       205090       1.09521
       205095        1.0952
       205100       1.09519
       205105       1.09518
       205110       1.09517
       205115       1.09516
       205120       1.09515
       205125       1.09514
       205130       1.09513
       205135       1.09512
       205140       1.09511
       205145       1.09509
       205150       1.09508
       205155       1.09507
       205160       1.09506
       205165       1.09505
       205170       1.09504
       205175       1.09503
       205180       1.09502
       205185       1.09501
       205190         1.095
       205195       1.09499
       205200       1.09498
       205205       1.09497
       205210       1.09496
       205215       1.09494
       205220       1.09493
       205225       1.09492
       205230       1.09491
       205235        1.0949
       205240       1.09489
       205245       1.09488
       205250       1.09487
       205255       1.09486
       205260       1.09485
       205265       1.09484
       205270       1.09483
       205275       1.09482
       205280       1.09481
       205285       1.09479
       205290       1.09478
       205295       1.09477
       205300       1.09476
       205305       1.09475
       205310       1.09474
       205315       1.09473
       205320       1.09472
       205325       1.09471
       205330        1.0947
       205335       1.09469
       205340       1.09468