# Probe 0 (0.05 0.05 0.005)
#       Probe             0
#        Time
       200005      0.133803
       200010      0.133788
       200015      0.133773
       200020      0.133758
       200025      0.133743
       200030      0.133728
       200035      0.133713
       200040      0.133698
       200045      0.133684
       200050      0.133669
       200055      0.133654
       200060      0.133639
       200065      0.133624
       200070      0.133609
       200075      0.133594
       200080      0.133579
       200085      0.133565
       200090       0.13355
       200095      0.133535
       200100       0.13352
       200105      0.133505
       200110       0.13349
       200115      0.133476
       200120      0.133461
       200125      0.133446
       200130      0.133431
       200135      0.133416
       200140      0.133401
       200145      0.133386
       200150      0.133372
       200155      0.133357
       200160      0.133342
       200165      0.133327
       200170      0.133312
       200175      0.133298
       200180      0.133283
       200185      0.133268
       200190      0.133253
       200195      0.133238
       200200      0.133223
       200205      0.133209
       200210      0.133194
       200215      0.133179
       200220      0.133164
       200225      0.133149
       200230      0.133135
       200235       0.13312
       200240      0.133105
       200245       0.13309
       200250      0.133075
       200255      0.133061
       200260      0.133046
       200265      0.133031
       200270      0.133016
       200275      0.133002
       200280      0.132987
       200285      0.132972
       200290      0.132957
       200295      0.132942
       200300      0.132928
       200305      0.132913
       200310      0.132898
       200315      0.132883
       200320      0.132869
       200325      0.132854
       200330      0.132839
       200335      0.132824
       200340       0.13281
       200345      0.132795
       200350       0.13278
       200355      0.132765
       200360      0.132751
       200365      0.132736
       200370      0.132721
       200375      0.132706
       200380      0.132692
       200385      0.132677
       200390      0.132662
       200395      0.132647
       200400      0.132633
       200405      0.132618
       200410      0.132603
       200415      0.132589
       200420      0.132574
       200425      0.132559
       200430      0.132544
       200435       0.13253
       200440      0.132515
       200445        0.1325
       200450      0.132486
       200455      0.132471
       200460      0.132456
       200465      0.132442
       200470      0.132427
       200475      0.132412
       200480      0.132397
       200485      0.132383
       200490      0.132368
       200495      0.132353
       200500      0.132339
       200505      0.132324
       200510      0.132309
       200515      0.132295
       200520       0.13228
       200525      0.132265
       200530      0.132251
       200535      0.132236
       200540      0.132221
       200545      0.132207
       200550      0.132192
       200555      0.132177
       200560      0.132163
       200565      0.132148
       200570      0.132133
       200575      0.132119
       200580      0.132104
       200585      0.132089
       200590      0.132075
       200595       0.13206
       200600      0.132045
       200605      0.132031
       200610      0.132016
       200615      0.132002
       200620      0.131987
       200625      0.131972
       200630      0.131958
       200635      0.131943
       200640      0.131928
       200645      0.131914
       200650      0.131899
       200655      0.131884
       200660       0.13187
       200665      0.131855
       200670      0.131841
       200675      0.131826
       200680      0.131811
       200685      0.131797
       200690      0.131782
       200695      0.131768
       200700      0.131753
       200705      0.131738
       200710      0.131724
       200715      0.131709
       200720      0.131695
       200725       0.13168
       200730      0.131665
       200735      0.131651
       200740      0.131636
       200745      0.131622
       200750      0.131607
       200755      0.131593
       200760      0.131578
       200765      0.131563
       200770      0.131549
       200775      0.131534
       200780       0.13152
       200785      0.131505
       200790      0.131491
       200795      0.131476
       200800      0.131461
       200805      0.131447
       200810      0.131432
       200815      0.131418
       200820      0.131403
       200825      0.131389
       200830      0.131374
       200835       0.13136
       200840      0.131345
       200845       0.13133
       200850      0.131316
       200855      0.131301
       200860      0.131287
       200865      0.131272
       200870      0.131258
       200875      0.131243
       200880      0.131229
       200885      0.131214
       200890        0.1312
       200895      0.131185
       200900      0.131171
       200905      0.131156
       200910      0.131142
       200915      0.131127
       200920      0.131113
       200925      0.131098
       200930      0.131084
       200935      0.131069
       200940      0.131055
       200945       0.13104
       200950      0.131026
       200955      0.131011
       200960      0.130997
       200965      0.130982
       200970      0.130968
       200975      0.130953
       200980      0.130939
       200985      0.130924
       200990       0.13091
       200995      0.130895
       201000      0.130881
       201005      0.130866
       201010      0.130852
       201015      0.130837
       201020      0.130823
       201025      0.130808
       201030      0.130794
       201035      0.130779
       201040      0.130765
       201045       0.13075
       201050      0.130736
       201055      0.130722
       201060      0.130707
       201065      0.130693
       201070      0.130678
       201075      0.130664
       201080      0.130649
       201085      0.130635
       201090       0.13062
       201095      0.130606
       201100      0.130591
       201105      0.130577
       201110      0.130563
       201115      0.130548
       201120      0.130534
       201125      0.130519
       201130      0.130505
       201135       0.13049
       201140      0.130476
       201145      0.130462
       201150      0.130447
       201155      0.130433
       201160      0.130418
       201165      0.130404
       201170       0.13039
       201175      0.130375
       201180      0.130361
       201185      0.130346
       201190      0.130332
       201195      0.130318
       201200      0.130303
       201205      0.130289
       201210      0.130274
       201215       0.13026
       201220      0.130246
       201225      0.130231
       201230      0.130217
       201235      0.130202
       201240      0.130188
       201245      0.130174
       201250      0.130159
       201255      0.130145
       201260      0.130131
       201265      0.130116
       201270      0.130102
       201275      0.130087
       201280      0.130073
       201285      0.130059
       201290      0.130044
       201295       0.13003
       201300      0.130016
       201305      0.130001
       201310      0.129987
       201315      0.129973
       201320      0.129958
       201325      0.129944
       201330       0.12993
       201335      0.129915
       201340      0.129901
       201345      0.129887
       201350      0.129872
       201355      0.129858
       201360      0.129844
       201365      0.129829
       201370      0.129815
       201375      0.129801
       201380      0.129786
       201385      0.129772
       201390      0.129758
       201395      0.129743
       201400      0.129729
       201405      0.129715
       201410        0.1297
       201415      0.129686
       201420      0.129672
       201425      0.129657
       201430      0.129643
       201435      0.129629
       201440      0.129614
       201445        0.1296
       201450      0.129586
       201455      0.129572
       201460      0.129557
       201465      0.129543
       201470      0.129529
       201475      0.129514
       201480        0.1295
       201485      0.129486
       201490      0.129472
       201495      0.129457
       201500      0.129443
       201505      0.129429
       201510      0.129415
       201515        0.1294
       201520      0.129386
       201525      0.129372
       201530      0.129357
       201535      0.129343
       201540      0.129329
       201545      0.129315
       201550        0.1293
       201555      0.129286
       201560      0.129272
       201565      0.129258
       201570      0.129243
       201575      0.129229
       201580      0.129215
       201585      0.129201
       201590      0.129186
       201595      0.129172
       201600      0.129158
       201605      0.129144
       201610      0.129129
       201615      0.129115
       201620      0.129101
       201625      0.129087
       201630      0.129073
       201635      0.129058
       201640      0.129044
       201645       0.12903
       201650      0.129016
       201655      0.129002
       201660      0.128987
       201665      0.128973
       201670      0.128959
       201675      0.128945
       201680       0.12893
       201685      0.128916
       201690      0.128902
       201695      0.128888
       201700      0.128874
       201705      0.128859
       201710      0.128845
       201715      0.128831
       201720      0.128817
       201725      0.128803
       201730      0.128789
       201735      0.128774
       201740       0.12876
       201745      0.128746
       201750      0.128732
       201755      0.128718
       201760      0.128703
       201765      0.128689
       201770      0.128675
       201775      0.128661
       201780      0.128647
       201785      0.128633
       201790      0.128618
       201795      0.128604
       201800       0.12859
       201805      0.128576
       201810      0.128562
       201815      0.128548
       201820      0.128534
       201825      0.128519
       201830      0.128505
       201835      0.128491
       201840      0.128477
       201845      0.128463
       201850      0.128449
       201855      0.128435
       201860       0.12842
       201865      0.128406
       201870      0.128392
       201875      0.128378
       201880      0.128364
       201885       0.12835
       201890      0.128336
       201895      0.128322
       201900      0.128307
       201905      0.128293
       201910      0.128279
       201915      0.128265
       201920      0.128251
       201925      0.128237
       201930      0.128223
       201935      0.128209
       201940      0.128195
       201945      0.128181
       201950      0.128166
       201955      0.128152
       201960      0.128138
       201965      0.128124
       201970       0.12811
       201975      0.128096
       201980      0.128082
       201985      0.128068
       201990      0.128054
       201995       0.12804
       202000      0.128026
       202005      0.128012
       202010      0.127997
       202015      0.127983
       202020      0.127969
       202025      0.127955
       202030      0.127941
       202035      0.127927
       202040      0.127913
       202045      0.127899
       202050      0.127885
       202055      0.127871
       202060      0.127857
       202065      0.127843
       202070      0.127829
       202075      0.127815
       202080      0.127801
       202085      0.127787
       202090      0.127773
       202095      0.127759
       202100      0.127744
       202105       0.12773
       202110      0.127716
       202115      0.127702
       202120      0.127688
       202125      0.127674
       202130       0.12766
       202135      0.127646
       202140      0.127632
       202145      0.127618
       202150      0.127604
       202155       0.12759
       202160      0.127576
       202165      0.127562
       202170      0.127548
       202175      0.127534
       202180       0.12752
       202185      0.127506
       202190      0.127492
       202195      0.127478
       202200      0.127464
       202205       0.12745
       202210      0.127436
       202215      0.127422
       202220      0.127408
       202225      0.127394
       202230       0.12738
       202235      0.127366
       202240      0.127352
       202245      0.127338
       202250      0.127324
       202255       0.12731
       202260      0.127296
       202265      0.127282
       202270      0.127268
       202275      0.127254
       202280       0.12724
       202285      0.127227
       202290      0.127213
       202295      0.127199
       202300      0.127185
       202305      0.127171
       202310      0.127157
       202315      0.127143
       202320      0.127129
       202325      0.127115
       202330      0.127101
       202335      0.127087
       202340      0.127073
       202345      0.127059
       202350      0.127045
       202355      0.127031
       202360      0.127017
       202365      0.127003
       202370      0.126989
       202375      0.126975
       202380      0.126962
       202385      0.126948
       202390      0.126934
       202395       0.12692
       202400      0.126906
       202405      0.126892
       202410      0.126878
       202415      0.126864
       202420       0.12685
       202425      0.126836
       202430      0.126822
       202435      0.126808
       202440      0.126795
       202445      0.126781
       202450      0.126767
       202455      0.126753
       202460      0.126739
       202465      0.126725
       202470      0.126711
       202475      0.126697
       202480      0.126683
       202485       0.12667
       202490      0.126656
       202495      0.126642
       202500      0.126628
       202505      0.126614
       202510        0.1266
       202515      0.126586
       202520      0.126572
       202525      0.126559
       202530      0.126545
       202535      0.126531
       202540      0.126517
       202545      0.126503
       202550      0.126489
       202555      0.126475
       202560      0.126461
       202565      0.126448
       202570      0.126434
       202575       0.12642
       202580      0.126406
       202585      0.126392
       202590      0.126378
       202595      0.126365
       202600      0.126351
       202605      0.126337
       202610      0.126323
       202615      0.126309
       202620      0.126295
       202625      0.126282
       202630      0.126268
       202635      0.126254
       202640       0.12624
       202645      0.126226
       202650      0.126212
       202655      0.126199
       202660      0.126185
       202665      0.126171
       202670      0.126157
       202675      0.126143
       202680       0.12613
       202685      0.126116
       202690      0.126102
       202695      0.126088
       202700      0.126074
       202705       0.12606
       202710      0.126047
       202715      0.126033
       202720      0.126019
       202725      0.126005
       202730      0.125992
       202735      0.125978
       202740      0.125964
       202745       0.12595
       202750      0.125936
       202755      0.125923
       202760      0.125909
       202765      0.125895
       202770      0.125881
       202775      0.125867
       202780      0.125854
       202785       0.12584
       202790      0.125826
       202795      0.125812
       202800      0.125799
       202805      0.125785
       202810      0.125771
       202815      0.125757
       202820      0.125744
       202825       0.12573
       202830      0.125716
       202835      0.125702
       202840      0.125689
       202845      0.125675
       202850      0.125661
       202855      0.125647
       202860      0.125634
       202865       0.12562
       202870      0.125606
       202875      0.125592
       202880      0.125579
       202885      0.125565
       202890      0.125551
       202895      0.125538
       202900      0.125524
       202905       0.12551
       202910      0.125496
       202915      0.125483
       202920      0.125469
       202925      0.125455
       202930      0.125441
       202935      0.125428
       202940      0.125414
       202945        0.1254
       202950      0.125387
       202955      0.125373
       202960      0.125359
       202965      0.125346
       202970      0.125332
       202975      0.125318
       202980      0.125304
       202985      0.125291
       202990      0.125277
       202995      0.125263
       203000       0.12525
       203005      0.125236
       203010      0.125222
       203015      0.125209
       203020      0.125195
       203025      0.125181
       203030      0.125168
       203035      0.125154
       203040       0.12514
       203045      0.125127
       203050      0.125113
       203055      0.125099
       203060      0.125086
       203065      0.125072
       203070      0.125058
       203075      0.125045
       203080      0.125031
       203085      0.125017
       203090      0.125004
       203095       0.12499
       203100      0.124976
       203105      0.124963
       203110      0.124949
       203115      0.124935
       203120      0.124922
       203125      0.124908
       203130      0.124894
       203135      0.124881
       203140      0.124867
       203145      0.124854
       203150       0.12484
       203155      0.124826
       203160      0.124813
       203165      0.124799
       203170      0.124785
       203175      0.124772
       203180      0.124758
       203185      0.124745
       203190      0.124731
       203195      0.124717
       203200      0.124704
       203205       0.12469
       203210      0.124677
       203215      0.124663
       203220      0.124649
       203225      0.124636
       203230      0.124622
       203235      0.124609
       203240      0.124595
       203245      0.124581
       203250      0.124568
       203255      0.124554
       203260      0.124541
       203265      0.124527
       203270      0.124513
       203275        0.1245
       203280      0.124486
       203285      0.124473
       203290      0.124459
       203295      0.124446
       203300      0.124432
       203305      0.124418
       203310      0.124405
       203315      0.124391
       203320      0.124378
       203325      0.124364
       203330      0.124351
       203335      0.124337
       203340      0.124323
       203345       0.12431
       203350      0.124296
       203355      0.124283
       203360      0.124269
       203365      0.124256
       203370      0.124242
       203375      0.124229
       203380      0.124215
       203385      0.124201
       203390      0.124188
       203395      0.124174
       203400      0.124161
       203405      0.124147
       203410      0.124134
       203415       0.12412
       203420      0.124107
       203425      0.124093
       203430       0.12408
       203435      0.124066
       203440      0.124053
       203445      0.124039
       203450      0.124026
       203455      0.124012
       203460      0.123999
       203465      0.123985
       203470      0.123972
       203475      0.123958
       203480      0.123945
       203485      0.123931
       203490      0.123918
       203495      0.123904
       203500      0.123891
       203505      0.123877
       203510      0.123864
       203515       0.12385
       203520      0.123837
       203525      0.123823
       203530       0.12381
       203535      0.123796
       203540      0.123783
       203545      0.123769
       203550      0.123756
       203555      0.123742
       203560      0.123729
       203565      0.123715
       203570      0.123702
       203575      0.123688
       203580      0.123675
       203585      0.123661
       203590      0.123648
       203595      0.123634
       203600      0.123621
       203605      0.123608
       203610      0.123594
       203615      0.123581
       203620      0.123567
       203625      0.123554
       203630       0.12354
       203635      0.123527
       203640      0.123513
       203645        0.1235
       203650      0.123487
       203655      0.123473
       203660       0.12346
       203665      0.123446
       203670      0.123433
       203675      0.123419
       203680      0.123406
       203685      0.123393
       203690      0.123379
       203695      0.123366
       203700      0.123352
       203705      0.123339
       203710      0.123325
       203715      0.123312
       203720      0.123299
       203725      0.123285
       203730      0.123272
       203735      0.123258
       203740      0.123245
       203745      0.123232
       203750      0.123218
       203755      0.123205
       203760      0.123191
       203765      0.123178
       203770      0.123165
       203775      0.123151
       203780      0.123138
       203785      0.123124
       203790      0.123111
       203795      0.123098
       203800      0.123084
       203805      0.123071
       203810      0.123057
       203815      0.123044
       203820      0.123031
       203825      0.123017
       203830      0.123004
       203835      0.122991
       203840      0.122977
       203845      0.122964
       203850       0.12295
       203855      0.122937
       203860      0.122924
       203865       0.12291
       203870      0.122897
       203875      0.122884
       203880       0.12287
       203885      0.122857
       203890      0.122844
       203895       0.12283
       203900      0.122817
       203905      0.122804
       203910       0.12279
       203915      0.122777
       203920      0.122764
       203925       0.12275
       203930      0.122737
       203935      0.122724
       203940       0.12271
       203945      0.122697
       203950      0.122684
       203955       0.12267
       203960      0.122657
       203965      0.122644
       203970       0.12263
       203975      0.122617
       203980      0.122604
       203985       0.12259
       203990      0.122577
       203995      0.122564
       204000       0.12255
       204005      0.122537
       204010      0.122524
       204015       0.12251
       204020      0.122497
       204025      0.122484
       204030       0.12247
       204035      0.122457
       204040      0.122444
       204045      0.122431
       204050      0.122417
       204055      0.122404
       204060      0.122391
       204065      0.122377
       204070      0.122364
       204075      0.122351
       204080      0.122338
       204085      0.122324
       204090      0.122311
       204095      0.122298
       204100      0.122285
       204105      0.122271
       204110      0.122258
       204115      0.122245
       204120      0.122231
       204125      0.122218
       204130      0.122205
       204135      0.122192
       204140      0.122178
       204145      0.122165
       204150      0.122152
       204155      0.122139
       204160      0.122125
       204165      0.122112
       204170      0.122099
       204175      0.122086
       204180      0.122072
       204185      0.122059
       204190      0.122046
       204195      0.122033
       204200      0.122019
       204205      0.122006
       204210      0.121993
       204215       0.12198
       204220      0.121966
       204225      0.121953
       204230       0.12194
       204235      0.121927
       204240      0.121914
       204245        0.1219
       204250      0.121887
       204255      0.121874
       204260      0.121861
       204265      0.121848
       204270      0.121834
       204275      0.121821
       204280      0.121808
       204285      0.121795
       204290      0.121781
       204295      0.121768
       204300      0.121755
       204305      0.121742
       204310      0.121729
       204315      0.121715
       204320      0.121702
       204325      0.121689
       204330      0.121676
       204335      0.121663
       204340       0.12165
       204345      0.121636
       204350      0.121623
       204355       0.12161
       204360      0.121597
       204365      0.121584
       204370       0.12157
       204375      0.121557
       204380      0.121544
       204385      0.121531
       204390      0.121518
       204395      0.121505
       204400      0.121491
       204405      0.121478
       204410      0.121465
       204415      0.121452
       204420      0.121439
       204425      0.121426
       204430      0.121413
       204435      0.121399
       204440      0.121386
       204445      0.121373
       204450       0.12136
       204455      0.121347
       204460      0.121334
       204465      0.121321
       204470      0.121307
       204475      0.121294
       204480      0.121281
       204485      0.121268
       204490      0.121255
       204495      0.121242
       204500      0.121229
       204505      0.121215
       204510      0.121202
       204515      0.121189
       204520      0.121176
       204525      0.121163
       204530       0.12115
       204535      0.121137
       204540      0.121124
       204545      0.121111
       204550      0.121097
       204555      0.121084
       204560      0.121071
       204565      0.121058
       204570      0.121045
       204575      0.121032
       204580      0.121019
       204585      0.121006
       204590      0.120993
       204595       0.12098
       204600      0.120966
       204605      0.120953
       204610       0.12094
       204615      0.120927
       204620      0.120914
       204625      0.120901
       204630      0.120888
       204635      0.120875
       204640      0.120862
       204645      0.120849
       204650      0.120836
       204655      0.120823
       204660      0.120809
       204665      0.120796
       204670      0.120783
       204675       0.12077
       204680      0.120757
       204685      0.120744
       204690      0.120731
       204695      0.120718
       204700      0.120705
       204705      0.120692
       204710      0.120679
       204715      0.120666
       204720      0.120653
       204725       0.12064
       204730      0.120627
       204735      0.120614
       204740      0.120601
       204745      0.120588
       204750      0.120575
       204755      0.120562
       204760      0.120548
       204765      0.120535
       204770      0.120522
       204775      0.120509
       204780      0.120496
       204785      0.120483
       204790       0.12047
       204795      0.120457
       204800      0.120444
       204805      0.120431
       204810      0.120418
       204815      0.120405
       204820      0.120392
       204825      0.120379
       204830      0.120366
       204835      0.120353
       204840       0.12034
       204845      0.120327
       204850      0.120314
       204855      0.120301
       204860      0.120288
       204865      0.120275
       204870      0.120262
       204875      0.120249
       204880      0.120236
       204885      0.120223
       204890       0.12021
       204895      0.120197
       204900      0.120184
       204905      0.120171
       204910      0.120158
       204915      0.120145
       204920      0.120132
       204925      0.120119
       204930      0.120106
       204935      0.120093
       204940      0.120081
       204945      0.120068
       204950      0.120055
       204955      0.120042
       204960      0.120029
       204965      0.120016
       204970      0.120003
       204975       0.11999
       204980      0.119977
       204985      0.119964
       204990      0.119951
       204995      0.119938
       205000      0.119925
       205005      0.119912
       205010      0.119899
       205015      0.119886
       205020      0.119873
       205025       0.11986
       205030      0.119847
       205035      0.119834
       205040      0.119822
       205045      0.119809
       205050      0.119796
       205055      0.119783
       205060       0.11977
       205065      0.119757
       205070      0.119744
       205075      0.119731
       205080      0.119718
       205085      0.119705
       205090      0.119692
       205095      0.119679
       205100      0.119667
       205105      0.119654
       205110      0.119641
       205115      0.119628
       205120      0.119615
       205125      0.119602
       205130      0.119589
       205135      0.119576
       205140      0.119563
       205145       0.11955
       205150      0.119538
       205155      0.119525
       205160      0.119512
       205165      0.119499
       205170      0.119486
       205175      0.119473
       205180       0.11946
       205185      0.119447
       205190      0.119434
       205195      0.119422
       205200      0.119409
       205205      0.119396
       205210      0.119383
       205215       0.11937
       205220      0.119357
       205225      0.119344
       205230      0.119331
       205235      0.119319
       205240      0.119306
       205245      0.119293
       205250       0.11928
       205255      0.119267
       205260      0.119254
       205265      0.119241
       205270      0.119229
       205275      0.119216
       205280      0.119203
       205285       0.11919
       205290      0.119177
       205295      0.119164
       205300      0.119152
       205305      0.119139
       205310      0.119126
       205315      0.119113
       205320        0.1191
       205325      0.119087
       205330      0.119075
       205335      0.119062
       205340      0.119049