# Probe 0 (0.05 0.05 0.005)
#       Probe             0
#        Time
       200005       1.36083
       200010       1.36078
       200015       1.36073
       200020       1.36069
       200025       1.36064
       200030       1.36059
       200035       1.36055
       200040        1.3605
       200045       1.36045
       200050       1.36041
       200055       1.36036
       200060       1.36031
       200065       1.36027
       200070       1.36022
       200075       1.36017
       200080       1.36013
       200085       1.36008
       200090       1.36003
       200095       1.35999
       200100       1.35994
       200105       1.35989
       200110       1.35985
       200115        1.3598
       200120       1.35976
       200125       1.35971
       200130       1.35966
       200135       1.35962
       200140       1.35957
       200145       1.35952
       200150       1.35948
       200155       1.35943
       200160       1.35938
       200165       1.35934
       200170       1.35929
       200175       1.35924
       200180        1.3592
       200185       1.35915
       200190       1.35911
       200195       1.35906
       200200       1.35901
       200205       1.35897
       200210       1.35892
       200215       1.35887
       200220       1.35883
       200225       1.35878
       200230       1.35873
       200235       1.35869
       200240       1.35864
       200245        1.3586
       200250       1.35855
       200255        1.3585
       200260       1.35846
       200265       1.35841
       200270       1.35836
       200275       1.35832
       200280       1.35827
       200285       1.35823
       200290       1.35818
       200295       1.35813
       200300       1.35809
       200305       1.35804
       200310       1.35799
       200315       1.35795
       200320        1.3579
       200325       1.35786
       200330       1.35781
       200335       1.35776
       200340       1.35772
       200345       1.35767
       200350       1.35763
       200355       1.35758
       200360       1.35753
       200365       1.35749
       200370       1.35744
       200375        1.3574
       200380       1.35735
       200385        1.3573
       200390       1.35726
       200395       1.35721
       200400       1.35717
       200405       1.35712
       200410       1.35707
       200415       1.35703
       200420       1.35698
       200425       1.35694
       200430       1.35689
       200435       1.35684
       200440        1.3568
       200445       1.35675
       200450       1.35671
       200455       1.35666
       200460       1.35661
       200465       1.35657
       200470       1.35652
       200475       1.35648
       200480       1.35643
       200485       1.35638
       200490       1.35634
       200495       1.35629
       200500       1.35625
       200505        1.3562
       200510       1.35615
       200515       1.35611
       200520       1.35606
       200525       1.35602
       200530       1.35597
       200535       1.35593
       200540       1.35588
       200545       1.35583
       200550       1.35579
       200555       1.35574
       200560        1.3557
       200565       1.35565
       200570       1.35561
       200575       1.35556
       200580       1.35551
       200585       1.35547
       200590       1.35542
       200595       1.35538
       200600       1.35533
       200605       1.35529
       200610       1.35524
       200615       1.35519
       200620       1.35515
       200625        1.3551
       200630       1.35506
       200635       1.35501
       200640       1.35497
       200645       1.35492
       200650       1.35487
       200655       1.35483
       200660       1.35478
       200665       1.35474
       200670       1.35469
       200675       1.35465
       200680        1.3546
       200685       1.35456
       200690       1.35451
       200695       1.35446
       200700       1.35442
       200705       1.35437
       200710       1.35433
       200715       1.35428
       200720       1.35424
       200725       1.35419
       200730       1.35415
       200735        1.3541
       200740       1.35405
       200745       1.35401
       200750       1.35396
       200755       1.35392
       200760       1.35387
       200765       1.35383
       200770       1.35378
       200775       1.35374
       200780       1.35369
       200785       1.35365
       200790        1.3536
       200795       1.35356
       200800       1.35351
       200805       1.35346
       200810       1.35342
       200815       1.35337
       200820       1.35333
       200825       1.35328
       200830       1.35324
       200835       1.35319
       200840       1.35315
       200845        1.3531
       200850       1.35306
       200855       1.35301
       200860       1.35297
       200865       1.35292
       200870       1.35288
       200875       1.35283
       200880       1.35278
       200885       1.35274
       200890       1.35269
       200895       1.35265
       200900        1.3526
       200905       1.35256
       200910       1.35251
       200915       1.35247
       200920       1.35242
       200925       1.35238
       200930       1.35233
       200935       1.35229
       200940       1.35224
       200945        1.3522
       200950       1.35215
       200955       1.35211
       200960       1.35206
       200965       1.35202
       200970       1.35197
       200975       1.35193
       200980       1.35188
       200985       1.35184
       200990       1.35179
       200995       1.35175
       201000        1.3517
       201005       1.35166
       201010       1.35161
       201015       1.35157
       201020       1.35152
       201025       1.35148
       201030       1.35143
       201035       1.35139
       201040       1.35134
       201045        1.3513
       201050       1.35125
       201055       1.35121
       201060       1.35116
       201065       1.35112
       201070       1.35107
       201075       1.35103
       201080       1.35098
       201085       1.35094
       201090       1.35089
       201095       1.35085
       201100        1.3508
       201105       1.35076
       201110       1.35071
       201115       1.35067
       201120       1.35062
       201125       1.35058
       201130       1.35053
       201135       1.35049
       201140       1.35044
       201145        1.3504
       201150       1.35035
       201155       1.35031
       201160       1.35026
       201165       1.35022
       201170       1.35017
       201175       1.35013
       201180       1.35008
       201185       1.35004
       201190       1.34999
       201195       1.34995
       201200        1.3499
       201205       1.34986
       201210       1.34982
       201215       1.34977
       201220       1.34973
       201225       1.34968
       201230       1.34964
       201235       1.34959
       201240       1.34955
       201245        1.3495
       201250       1.34946
       201255       1.34941
       201260       1.34937
       201265       1.34932
       201270       1.34928
       201275       1.34923
       201280       1.34919
       201285       1.34915
       201290        1.3491
       201295       1.34906
       201300       1.34901
       201305       1.34897
       201310       1.34892
       201315       1.34888
       201320       1.34883
       201325       1.34879
       201330       1.34874
       201335        1.3487
       201340       1.34866
       201345       1.34861
       201350       1.34857
       201355       1.34852
       201360       1.34848
       201365       1.34843
       201370       1.34839
       201375       1.34834
       201380        1.3483
       201385       1.34825
       201390       1.34821
       201395       1.34817
       201400       1.34812
       201405       1.34808
       201410       1.34803
       201415       1.34799
       201420       1.34794
       201425        1.3479
       201430       1.34785
       201435       1.34781
       201440       1.34777
       201445       1.34772
       201450       1.34768
       201455       1.34763
       201460       1.34759
       201465       1.34754
       201470        1.3475
       201475       1.34746
       201480       1.34741
       201485       1.34737
       201490       1.34732
       201495       1.34728
       201500       1.34723
       201505       1.34719
       201510       1.34715
       201515        1.3471
       201520       1.34706
       201525       1.34701
       201530       1.34697
       201535       1.34692
       201540       1.34688
       201545       1.34684
       201550       1.34679
       201555       1.34675
       201560        1.3467
       201565       1.34666
       201570       1.34661
       201575       1.34657
       201580       1.34653
       201585       1.34648
       201590       1.34644
       201595       1.34639
       201600       1.34635
       201605       1.34631
       201610       1.34626
       201615       1.34622
       201620       1.34617
       201625       1.34613
       201630       1.34609
       201635       1.34604
       201640         1.346
       201645       1.34595
       201650       1.34591
       201655       1.34587
       201660       1.34582
       201665       1.34578
       201670       1.34573
       201675       1.34569
       201680       1.34564
       201685        1.3456
       201690       1.34556
       201695       1.34551
       201700       1.34547
       201705       1.34542
       201710       1.34538
       201715       1.34534
       201720       1.34529
       201725       1.34525
       201730       1.34521
       201735       1.34516
       201740       1.34512
       201745       1.34507
       201750       1.34503
       201755       1.34499
       201760       1.34494
       201765        1.3449
       201770       1.34485
       201775       1.34481
       201780       1.34477
       201785       1.34472
       201790       1.34468
       201795       1.34463
       201800       1.34459
       201805       1.34455
       201810        1.3445
       201815       1.34446
       201820       1.34442
       201825       1.34437
       201830       1.34433
       201835       1.34428
       201840       1.34424
       201845        1.3442
       201850       1.34415
       201855       1.34411
       201860       1.34407
       201865       1.34402
       201870       1.34398
       201875       1.34393
       201880       1.34389
       201885       1.34385
       201890        1.3438
       201895       1.34376
       201900       1.34372
       201905       1.34367
       201910       1.34363
       201915       1.34359
       201920       1.34354
       201925        1.3435
       201930       1.34345
       201935       1.34341
       201940       1.34337
       201945       1.34332
       201950       1.34328
       201955       1.34324
       201960       1.34319
       201965       1.34315
       201970       1.34311
       201975       1.34306
       201980       1.34302
       201985       1.34297
       201990       1.34293
       201995       1.34289
       202000       1.34284
       202005        1.3428
       202010       1.34276
       202015       1.34271
       202020       1.34267
       202025       1.34263
       202030       1.34258
       202035       1.34254
       202040        1.3425
       202045       1.34245
       202050       1.34241
       202055       1.34237
       202060       1.34232
       202065       1.34228
       202070       1.34224
       202075       1.34219
       202080       1.34215
       202085       1.34211
       202090       1.34206
       202095       1.34202
       202100       1.34198
       202105       1.34193
       202110       1.34189
       202115       1.34185
       202120        1.3418
       202125       1.34176
       202130       1.34172
       202135       1.34167
       202140       1.34163
       202145       1.34159
       202150       1.34154
       202155        1.3415
       202160       1.34146
       202165       1.34141
       202170       1.34137
       202175       1.34133
       202180       1.34128
       202185       1.34124
       202190        1.3412
       202195       1.34115
       202200       1.34111
       202205       1.34107
       202210       1.34102
       202215       1.34098
       202220       1.34094
       202225       1.34089
       202230       1.34085
       202235       1.34081
       202240       1.34076
       202245       1.34072
       202250       1.34068
       202255       1.34063
       202260       1.34059
       202265       1.34055
       202270        1.3405
       202275       1.34046
       202280       1.34042
       202285       1.34038
       202290       1.34033
       202295       1.34029
       202300       1.34025
       202305        1.3402
       202310       1.34016
       202315       1.34012
       202320       1.34007
       202325       1.34003
       202330       1.33999
       202335       1.33994
       202340        1.3399
       202345       1.33986
       202350       1.33982
       202355       1.33977
       202360       1.33973
       202365       1.33969
       202370       1.33964
       202375        1.3396
       202380       1.33956
       202385       1.33952
       202390       1.33947
       202395       1.33943
       202400       1.33939
       202405       1.33934
       202410        1.3393
       202415       1.33926
       202420       1.33921
       202425       1.33917
       202430       1.33913
       202435       1.33909
       202440       1.33904
       202445         1.339
       202450       1.33896
       202455       1.33891
       202460       1.33887
       202465       1.33883
       202470       1.33879
       202475       1.33874
       202480        1.3387
       202485       1.33866
       202490       1.33861
       202495       1.33857
       202500       1.33853
       202505       1.33849
       202510       1.33844
       202515        1.3384
       202520       1.33836
       202525       1.33832
       202530       1.33827
       202535       1.33823
       202540       1.33819
       202545       1.33814
       202550        1.3381
       202555       1.33806
       202560       1.33802
       202565       1.33797
       202570       1.33793
       202575       1.33789
       202580       1.33785
       202585        1.3378
       202590       1.33776
       202595       1.33772
       202600       1.33768
       202605       1.33763
       202610       1.33759
       202615       1.33755
       202620        1.3375
       202625       1.33746
       202630       1.33742
       202635       1.33738
       202640       1.33733
       202645       1.33729
       202650       1.33725
       202655       1.33721
       202660       1.33716
       202665       1.33712
       202670       1.33708
       202675       1.33704
       202680       1.33699
       202685       1.33695
       202690       1.33691
       202695       1.33687
       202700       1.33682
       202705       1.33678
       202710       1.33674
       202715        1.3367
       202720       1.33665
       202725       1.33661
       202730       1.33657
       202735       1.33653
       202740       1.33648
       202745       1.33644
       202750        1.3364
       202755       1.33636
       202760       1.33631
       202765       1.33627
       202770       1.33623
       202775       1.33619
       202780       1.33615
       202785        1.3361
       202790       1.33606
       202795       1.33602
       202800       1.33598
       202805       1.33593
       202810       1.33589
       202815       1.33585
       202820       1.33581
       202825       1.33576
       202830       1.33572
       202835       1.33568
       202840       1.33564
       202845        1.3356
       202850       1.33555
       202855       1.33551
       202860       1.33547
       202865       1.33543
       202870       1.33538
       202875       1.33534
       202880        1.3353
       202885       1.33526
       202890       1.33522
       202895       1.33517
       202900       1.33513
       202905       1.33509
       202910       1.33505
       202915         1.335
       202920       1.33496
       202925       1.33492
       202930       1.33488
       202935       1.33484
       202940       1.33479
       202945       1.33475
       202950       1.33471
       202955       1.33467
       202960       1.33462
       202965       1.33458
       202970       1.33454
       202975        1.3345
       202980       1.33446
       202985       1.33441
       202990       1.33437
       202995       1.33433
       203000       1.33429
       203005       1.33425
       203010        1.3342
       203015       1.33416
       203020       1.33412
       203025       1.33408
       203030       1.33404
       203035       1.33399
       203040       1.33395
       203045       1.33391
       203050       1.33387
       203055       1.33383
       203060       1.33378
       203065       1.33374
       203070        1.3337
       203075       1.33366
       203080       1.33362
       203085       1.33357
       203090       1.33353
       203095       1.33349
       203100       1.33345
       203105       1.33341
       203110       1.33336
       203115       1.33332
       203120       1.33328
       203125       1.33324
       203130        1.3332
       203135       1.33316
       203140       1.33311
       203145       1.33307
       203150       1.33303
       203155       1.33299
       203160       1.33295
       203165        1.3329
       203170       1.33286
       203175       1.33282
       203180       1.33278
       203185       1.33274
       203190        1.3327
       203195       1.33265
       203200       1.33261
       203205       1.33257
       203210       1.33253
       203215       1.33249
       203220       1.33245
       203225        1.3324
       203230       1.33236
       203235       1.33232
       203240       1.33228
       203245       1.33224
       203250       1.33219
       203255       1.33215
       203260       1.33211
       203265       1.33207
       203270       1.33203
       203275       1.33199
       203280       1.33194
       203285        1.3319
       203290       1.33186
       203295       1.33182
       203300       1.33178
       203305       1.33174
       203310        1.3317
       203315       1.33165
       203320       1.33161
       203325       1.33157
       203330       1.33153
       203335       1.33149
       203340       1.33145
       203345        1.3314
       203350       1.33136
       203355       1.33132
       203360       1.33128
       203365       1.33124
       203370        1.3312
       203375       1.33115
       203380       1.33111
       203385       1.33107
       203390       1.33103
       203395       1.33099
       203400       1.33095
       203405       1.33091
       203410       1.33086
       203415       1.33082
       203420       1.33078
       203425       1.33074
       203430        1.3307
       203435       1.33066
       203440       1.33062
       203445       1.33057
       203450       1.33053
       203455       1.33049
       203460       1.33045
       203465       1.33041
       203470       1.33037
       203475       1.33033
       203480       1.33028
       203485       1.33024
       203490        1.3302
       203495       1.33016
       203500       1.33012
       203505       1.33008
       203510       1.33004
       203515          1.33
       203520       1.32995
       203525       1.32991
       203530       1.32987
       203535       1.32983
       203540       1.32979
       203545       1.32975
       203550       1.32971
       203555       1.32967
       203560       1.32962
       203565       1.32958
       203570       1.32954
       203575        1.3295
       203580       1.32946
       203585       1.32942
       203590       1.32938
       203595       1.32934
       203600       1.32929
       203605       1.32925
       203610       1.32921
       203615       1.32917
       203620       1.32913
       203625       1.32909
       203630       1.32905
       203635       1.32901
       203640       1.32896
       203645       1.32892
       203650       1.32888
       203655       1.32884
       203660        1.3288
       203665       1.32876
       203670       1.32872
       203675       1.32868
       203680       1.32864
       203685       1.32859
       203690       1.32855
       203695       1.32851
       203700       1.32847
       203705       1.32843
       203710       1.32839
       203715       1.32835
       203720       1.32831
       203725       1.32827
       203730       1.32823
       203735       1.32818
       203740       1.32814
       203745        1.3281
       203750       1.32806
       203755       1.32802
       203760       1.32798
       203765       1.32794
       203770        1.3279
       203775       1.32786
       203780       1.32782
       203785       1.32777
       203790       1.32773
       203795       1.32769
       203800       1.32765
       203805       1.32761
       203810       1.32757
       203815       1.32753
       203820       1.32749
       203825       1.32745
       203830       1.32741
       203835       1.32737
       203840       1.32732
       203845       1.32728
       203850       1.32724
       203855        1.3272
       203860       1.32716
       203865       1.32712
       203870       1.32708
       203875       1.32704
       203880         1.327
       203885       1.32696
       203890       1.32692
       203895       1.32688
       203900       1.32683
       203905       1.32679
       203910       1.32675
       203915       1.32671
       203920       1.32667
       203925       1.32663
       203930       1.32659
       203935       1.32655
       203940       1.32651
       203945       1.32647
       203950       1.32643
       203955       1.32639
       203960       1.32635
       203965       1.32631
       203970       1.32626
       203975       1.32622
       203980       1.32618
       203985       1.32614
       203990        1.3261
       203995       1.32606
       204000       1.32602
       204005       1.32598
       204010       1.32594
       204015        1.3259
       204020       1.32586
       204025       1.32582
       204030       1.32578
       204035       1.32574
       204040        1.3257
       204045       1.32566
       204050       1.32561
       204055       1.32557
       204060       1.32553
       204065       1.32549
       204070       1.32545
       204075       1.32541
       204080       1.32537
       204085       1.32533
       204090       1.32529
       204095       1.32525
       204100       1.32521
       204105       1.32517
       204110       1.32513
       204115       1.32509
       204120       1.32505
       204125       1.32501
       204130       1.32497
       204135       1.32493
       204140       1.32489
       204145       1.32485
       204150        1.3248
       204155       1.32476
       204160       1.32472
       204165       1.32468
       204170       1.32464
       204175        1.3246
       204180       1.32456
       204185       1.32452
       204190       1.32448
       204195       1.32444
       204200        1.3244
       204205       1.32436
       204210       1.32432
       204215       1.32428
       204220       1.32424
       204225        1.3242
       204230       1.32416
       204235       1.32412
       204240       1.32408
       204245       1.32404
       204250         1.324
       204255       1.32396
       204260       1.32392
       204265       1.32388
       204270       1.32384
       204275        1.3238
       204280       1.32376
       204285       1.32372
       204290       1.32368
       204295       1.32364
       204300       1.32359
       204305       1.32355
       204310       1.32351
       204315       1.32347
       204320       1.32343
       204325       1.32339
       204330       1.32335
       204335       1.32331
       204340       1.32327
       204345       1.32323
       204350       1.32319
       204355       1.32315
       204360       1.32311
       204365       1.32307
       204370       1.32303
       204375       1.32299
       204380       1.32295
       204385       1.32291
       204390       1.32287
       204395       1.32283
       204400       1.32279
       204405       1.32275
       204410       1.32271
       204415       1.32267
       204420       1.32263
       204425       1.32259
       204430       1.32255
       204435       1.32251
       204440       1.32247
       204445       1.32243
       204450       1.32239
       204455       1.32235
       204460       1.32231
       204465       1.32227
       204470       1.32223
       204475       1.32219
       204480       1.32215
       204485       1.32211
       204490       1.32207
       204495       1.32203
       204500       1.32199
       204505       1.32195
       204510       1.32191
       204515       1.32187
       204520       1.32183
       204525       1.32179
       204530       1.32175
       204535       1.32171
       204540       1.32167
       204545       1.32163
       204550       1.32159
       204555       1.32155
       204560       1.32151
       204565       1.32147
       204570       1.32143
       204575       1.32139
       204580       1.32135
       204585       1.32131
       204590       1.32127
       204595       1.32123
       204600       1.32119
       204605       1.32115
       204610       1.32111
       204615       1.32107
       204620       1.32103
       204625       1.32099
       204630       1.32095
       204635       1.32091
       204640       1.32088
       204645       1.32084
       204650        1.3208
       204655       1.32076
       204660       1.32072
       204665       1.32068
       204670       1.32064
       204675        1.3206
       204680       1.32056
       204685       1.32052
       204690       1.32048
       204695       1.32044
       204700        1.3204
       204705       1.32036
       204710       1.32032
       204715       1.32028
       204720       1.32024
       204725        1.3202
       204730       1.32016
       204735       1.32012
       204740       1.32008
       204745       1.32004
       204750          1.32
       204755       1.31996
       204760       1.31992
       204765       1.31988
       204770       1.31984
       204775        1.3198
       204780       1.31976
       204785       1.31972
       204790       1.31969
       204795       1.31965
       204800       1.31961
       204805       1.31957
       204810       1.31953
       204815       1.31949
       204820       1.31945
       204825       1.31941
       204830       1.31937
       204835       1.31933
       204840       1.31929
       204845       1.31925
       204850       1.31921
       204855       1.31917
       204860       1.31913
       204865       1.31909
       204870       1.31905
       204875       1.31901
       204880       1.31897
       204885       1.31893
       204890        1.3189
       204895       1.31886
       204900       1.31882
       204905       1.31878
       204910       1.31874
       204915        1.3187
       204920       1.31866
       204925       1.31862
       204930       1.31858
       204935       1.31854
       204940        1.3185
       204945       1.31846
       204950       1.31842
       204955       1.31838
       204960       1.31834
       204965        1.3183
       204970       1.31827
       204975       1.31823
       204980       1.31819
       204985       1.31815
       204990       1.31811
       204995       1.31807
       205000       1.31803
       205005       1.31799
       205010       1.31795
       205015       1.31791
       205020       1.31787
       205025       1.31783
       205030       1.31779
       205035       1.31775
       205040       1.31772
       205045       1.31768
       205050       1.31764
       205055        1.3176
       205060       1.31756
       205065       1.31752
       205070       1.31748
       205075       1.31744
       205080        1.3174
       205085       1.31736
       205090       1.31732
       205095       1.31728
       205100       1.31724
       205105       1.31721
       205110       1.31717
       205115       1.31713
       205120       1.31709
       205125       1.31705
       205130       1.31701
       205135       1.31697
       205140       1.31693
       205145       1.31689
       205150       1.31685
       205155       1.31681
       205160       1.31678
       205165       1.31674
       205170        1.3167
       205175       1.31666
       205180       1.31662
       205185       1.31658
       205190       1.31654
       205195        1.3165
       205200       1.31646
       205205       1.31642
       205210       1.31639
       205215       1.31635
       205220       1.31631
       205225       1.31627
       205230       1.31623
       205235       1.31619
       205240       1.31615
       205245       1.31611
       205250       1.31607
       205255       1.31603
       205260         1.316
       205265       1.31596
       205270       1.31592
       205275       1.31588
       205280       1.31584
       205285        1.3158
       205290       1.31576
       205295       1.31572
       205300       1.31568
       205305       1.31564
       205310       1.31561
       205315       1.31557
       205320       1.31553
       205325       1.31549
       205330       1.31545
       205335       1.31541
       205340       1.31537